<VTKFile type="UnstructuredGrid" version="0.1">
	<UnstructuredGrid>
		<Piece NumberOfPoints="1862" NumberOfCells="3498">
			<CellData>
				<DataArray type="Int32" Name="boundary" NumberOfComponents="1" Format="ascii">
1
1
1
1
1
1
1
1
1
1
1
1
1
1
1
1
-1
1
1
-1
1
1
1
1
1
1
1
1
1
1
1
1
1
-1
1
1
1
1
1
1
1
1
1
1
1
1
1
1
1
1
-1
1
1
1
1
1
1
1
1
1
1
-1
1
1
1
1
1
1
1
1
1
1
1
1
1
1
1
1
1
1
1
1
1
1
1
1
1
1
1
1
1
1
1
1
1
1
1
1
1
1
1
1
1
1
1
1
1
1
1
1
1
1
1
1
1
1
1
1
1
1
1
1
1
-1
1
1
1
1
1
1
1
1
1
1
1
1
1
1
1
1
1
1
1
1
1
1
1
1
1
1
1
-1
1
-1
-1
1
1
1
1
1
1
1
1
1
1
1
1
1
-1
1
-1
1
1
1
1
-1
1
1
1
1
1
1
1
1
-1
-1
1
1
1
1
1
-1
1
1
1
1
1
1
1
1
-1
1
1
1
1
1
1
1
1
1
1
1
1
1
1
1
1
1
1
1
1
1
1
1
1
1
1
1
1
1
1
1
1
-1
1
1
1
1
1
1
1
1
1
1
1
1
1
1
1
1
1
1
1
1
1
1
1
1
1
1
1
1
1
1
1
1
1
1
1
1
1
1
1
1
1
1
1
1
1
1
1
-1
1
1
1
1
1
1
1
1
1
1
1
1
1
1
1
1
1
1
1
1
1
1
1
1
1
1
1
1
1
1
1
1
1
1
1
1
1
1
1
1
1
1
1
1
1
1
1
1
1
1
-1
1
1
1
1
1
1
1
1
1
1
1
1
1
1
1
1
1
1
1
1
1
1
1
1
1
1
1
1
1
1
1
1
1
1
1
1
1
1
1
1
1
1
1
1
1
1
1
1
1
1
1
1
1
1
1
1
1
-1
1
1
1
1
1
1
1
1
1
1
1
1
1
1
1
1
1
1
1
1
1
1
1
1
1
1
1
1
1
1
1
1
1
1
1
1
1
1
1
1
1
1
1
1
1
1
1
1
1
1
1
1
1
1
1
1
1
1
1
1
1
1
1
1
1
1
1
1
1
1
1
1
1
1
1
1
1
1
1
1
1
1
1
1
1
1
1
1
1
1
1
1
1
1
1
1
1
1
1
1
1
1
1
1
1
1
1
1
1
1
1
1
1
1
1
1
1
1
1
1
1
1
1
1
1
1
1
1
1
1
1
1
-1
1
1
1
1
1
1
1
1
1
1
1
1
1
1
1
1
1
1
1
-1
1
1
1
1
1
1
1
1
1
1
1
1
1
1
1
1
1
1
1
1
1
1
1
1
1
1
1
1
1
1
1
1
1
1
1
1
1
1
1
1
1
1
1
1
1
1
1
1
1
1
1
1
1
-1
1
1
1
1
1
1
1
1
1
1
1
1
1
1
1
1
1
1
1
1
1
1
1
-1
1
1
1
1
1
1
1
1
1
1
1
1
1
1
1
1
1
1
1
-1
1
1
1
-1
1
1
1
1
1
1
1
1
1
1
1
1
1
1
1
1
1
1
1
1
1
1
1
1
1
-1
1
1
1
1
1
1
1
-1
1
1
1
1
1
1
1
1
1
1
1
1
1
1
1
1
1
1
1
1
1
1
1
1
1
1
-1
1
1
1
1
1
1
1
-1
1
1
1
1
1
1
-1
1
1
1
1
1
1
1
1
1
1
1
1
1
1
1
1
1
1
1
1
1
1
1
1
1
1
1
1
1
1
1
1
1
1
1
1
1
1
-1
1
1
1
1
1
-1
1
1
1
1
1
1
1
-1
1
1
1
1
1
1
1
1
1
1
1
1
1
-1
1
1
1
1
1
1
1
1
1
1
1
1
1
1
1
1
1
1
1
1
1
1
1
1
1
1
1
1
1
1
1
1
1
1
1
1
1
1
1
1
1
1
1
1
1
1
1
1
1
1
1
1
1
-1
1
1
1
1
1
1
1
1
1
1
1
1
1
1
1
1
1
1
1
-1
1
1
1
1
1
1
1
1
1
-1
1
1
1
1
1
1
1
1
1
1
1
1
1
1
1
1
1
1
1
1
1
1
1
1
1
1
1
1
1
-1
1
-1
1
1
1
1
1
1
1
1
1
1
1
1
1
1
1
1
1
1
1
1
1
1
1
1
1
1
1
-1
1
1
1
-1
1
1
1
1
1
1
1
1
1
1
1
1
1
1
1
1
1
1
1
1
1
1
1
1
1
1
1
1
-1
1
1
1
1
1
1
1
1
1
1
1
1
1
1
1
1
1
1
1
1
1
1
1
1
1
-1
1
1
1
1
1
1
1
1
1
1
1
1
1
1
1
1
1
1
1
1
1
1
1
-1
1
1
1
1
1
1
-1
1
1
1
1
1
1
1
1
1
1
1
-1
1
1
1
1
1
1
1
1
1
1
1
1
1
1
1
1
1
1
1
1
-1
1
1
1
1
1
1
1
1
1
1
1
-1
1
1
1
1
1
1
1
1
1
1
1
1
1
1
1
1
1
1
1
1
1
-1
1
1
1
1
1
1
1
1
1
-1
-1
1
-1
1
-1
1
1
1
1
1
1
1
1
1
1
1
-1
1
1
1
1
1
-1
-1
1
1
1
1
1
1
-1
1
1
1
1
1
-1
-1
-1
1
1
1
1
1
1
1
1
1
1
1
1
-1
-1
1
1
-1
1
1
1
1
1
-1
1
1
1
-1
1
-1
1
1
1
1
1
1
1
-1
1
1
1
1
1
1
1
-1
1
1
-1
1
1
1
1
1
1
1
1
1
1
1
1
1
1
1
-1
1
1
1
1
1
1
1
1
1
1
1
1
1
1
1
1
1
1
1
1
1
1
1
1
1
1
1
1
1
1
1
1
1
1
1
1
-1
1
1
1
1
1
1
-1
1
1
1
-1
1
1
1
1
1
1
1
1
1
1
1
-1
1
1
1
1
1
1
1
1
1
1
1
1
1
1
1
1
1
1
1
1
1
1
1
1
1
1
1
1
1
1
1
1
1
1
1
1
1
1
1
1
-1
-1
1
1
1
1
1
1
1
1
1
1
1
1
1
-1
1
1
1
1
1
1
1
1
1
1
1
1
1
1
1
1
1
1
1
1
1
1
1
1
1
1
1
1
1
1
1
1
1
1
1
1
1
1
1
1
1
1
1
1
1
1
1
1
1
1
1
1
1
1
1
1
1
1
1
1
1
1
1
1
1
1
1
1
1
1
1
1
-1
-1
1
1
1
1
1
1
1
1
-1
1
1
1
1
1
1
1
1
1
1
1
1
1
1
1
1
1
1
1
1
1
1
1
-1
1
1
1
1
1
1
1
1
1
1
1
1
1
1
1
1
-1
1
1
1
1
1
1
1
1
1
1
1
1
1
1
1
1
1
1
1
1
1
1
1
1
1
1
1
1
1
1
1
1
1
1
1
1
1
1
1
1
1
1
1
1
1
1
1
1
1
1
1
1
1
1
1
1
1
1
1
1
1
1
1
1
1
1
1
1
1
1
1
1
1
1
1
1
1
1
1
1
1
1
1
1
1
1
1
1
1
1
-1
-1
1
1
1
1
1
-1
1
1
1
1
1
1
1
1
1
1
1
1
-1
1
1
1
1
1
1
1
1
1
1
1
1
1
1
1
1
1
1
1
1
1
1
1
1
1
1
1
1
1
1
1
1
1
1
1
1
1
1
1
1
1
1
1
1
1
1
1
1
1
1
1
1
1
-1
1
-1
1
1
1
1
1
1
1
1
1
1
1
1
1
1
1
1
1
1
-1
1
1
1
1
1
1
1
1
1
1
1
1
1
1
1
1
1
1
1
1
1
1
1
1
1
1
1
1
1
1
1
1
1
1
1
1
1
1
1
1
1
1
1
1
1
1
1
1
1
1
1
1
1
1
1
1
1
1
1
1
1
1
1
1
1
1
1
1
1
1
-1
1
1
1
1
1
1
1
1
1
1
-1
1
1
1
1
1
1
1
1
1
1
1
1
1
1
1
1
1
1
1
1
1
1
1
1
1
1
1
1
1
1
1
1
1
1
1
1
1
-1
1
1
1
1
1
1
1
1
1
1
1
1
1
1
1
1
1
1
1
1
1
1
1
1
1
1
1
1
1
1
1
1
1
1
1
1
1
1
1
1
1
1
1
1
1
1
1
1
1
1
1
1
1
1
1
1
1
1
1
1
1
1
1
1
1
1
1
1
1
1
1
1
1
1
1
1
1
1
1
1
1
-1
1
1
1
1
1
1
1
1
1
1
1
1
1
1
1
1
1
1
1
1
1
1
1
1
1
1
1
1
1
1
1
1
1
1
1
1
1
1
1
1
1
1
1
1
1
1
1
1
1
1
1
1
1
1
1
1
1
1
1
1
1
1
1
1
1
1
1
1
1
1
1
1
1
1
1
1
1
1
1
1
1
1
1
1
1
1
1
1
1
1
1
1
1
1
1
1
1
1
1
1
1
1
1
1
1
1
1
1
1
1
1
1
1
1
1
1
1
1
1
1
1
1
1
-1
1
1
1
1
1
1
1
1
1
1
1
1
1
1
1
1
1
1
1
1
1
1
1
1
1
1
1
1
1
1
1
1
1
1
1
1
1
1
1
1
1
1
1
1
1
1
1
1
1
1
1
1
1
1
1
1
1
1
1
1
1
1
1
1
1
1
1
1
1
1
1
1
1
1
1
1
1
1
1
1
1
-1
1
1
1
1
1
1
1
-1
1
1
1
1
1
1
1
1
1
1
1
1
1
1
1
1
1
1
1
1
1
1
1
1
1
1
1
1
1
1
1
1
1
1
1
1
1
-1
1
1
1
1
1
1
1
1
1
1
1
1
1
1
1
1
1
1
1
1
1
-1
1
1
1
1
1
1
1
1
1
1
1
1
-1
-1
1
1
1
1
1
1
1
1
1
1
1
1
1
1
1
-1
-1
1
-1
1
1
1
1
1
1
1
1
1
-1
1
1
1
1
1
1
-1
1
1
1
1
1
1
1
1
1
1
-1
1
1
1
1
-1
1
-1
1
1
1
1
1
1
1
-1
1
1
1
-1
1
1
1
-1
1
-1
-1
1
1
-1
-1
1
1
1
-1
1
1
1
-1
1
1
1
1
1
1
1
1
1
-1
1
1
1
1
1
1
-1
1
1
1
1
1
1
1
1
1
1
1
1
1
1
1
1
1
1
1
1
1
1
1
1
1
1
1
-1
1
1
-1
1
1
1
1
1
1
1
1
1
1
1
1
1
1
1
1
1
1
-1
1
1
-1
1
1
1
1
1
1
1
1
1
1
1
-1
1
1
-1
1
1
1
1
1
1
1
1
1
1
1
-1
-1
1
1
1
1
1
1
1
1
1
1
1
1
-1
1
1
1
1
1
1
1
1
1
1
1
1
1
1
1
1
1
-1
1
1
1
1
1
1
1
1
1
1
1
1
1
1
1
1
1
-1
1
1
1
1
1
1
1
1
1
1
1
1
1
1
1
1
1
1
1
1
1
1
1
1
1
1
1
1
1
1
1
1
1
1
1
1
1
1
1
1
-1
1
1
1
1
1
1
1
1
1
1
1
1
1
1
1
1
1
1
1
1
1
1
1
1
1
1
1
1
1
1
1
1
1
1
1
1
1
1
1
1
1
1
1
1
1
-1
1
1
1
1
1
1
1
1
1
1
1
1
1
1
1
1
1
1
1
1
1
1
1
1
1
1
1
1
1
1
1
1
1
1
1
1
1
1
1
1
1
1
1
1
1
1
1
-1
1
1
1
1
1
1
1
1
1
1
-1
1
1
1
1
1
1
1
1
1
1
1
1
1
1
1
-1
1
1
-1
1
1
1
1
1
1
1
1
1
1
1
1
1
1
1
1
1
1
1
1
1
1
1
-1
1
1
1
1
1
1
1
1
1
1
1
1
1
1
1
1
1
1
1
1
1
1
1
1
1
1
1
1
1
1
1
1
1
1
1
-1
1
1
1
1
1
1
1
1
1
1
1
1
1
1
1
1
1
1
1
1
1
1
1
1
1
1
1
1
1
1
1
1
1
1
1
1
1
1
1
1
1
1
1
1
1
1
1
1
1
1
1
1
1
1
1
1
1
1
1
1
1
1
1
1
1
1
1
1
1
1
1
1
1
1
1
1
-1
1
1
1
1
1
1
1
1
1
1
1
1
1
1
1
1
1
1
1
1
1
1
1
1
1
1
1
1
1
1
1
1
1
1
1
1
1
1
1
-1
1
1
1
1
1
1
1
1
1
1
1
1
-1
-1
1
1
1
1
1
1
1
1
1
1
1
1
1
1
1
1
1
1
1
1
1
1
1
1
1
1
1
1
1
1
1
1
1
1
1
1
1
1
1
1
1
1
1
1
1
1
1
1
1
1
1
1
1
1
1
1
1
1
1
1
1
1
1
1
1
1
1
1
1
1
1
1
1
1
1
1
1
1
1
1
1
1
1
1
1
1
1
1
1
1
1
1
1
1
1
1
1
1
1
1
1
-1
1
-1
1
1
1
1
1
1
1
-1
-1
-1
-1
1
1
1
1
1
1
1
1
1
1
1
1
1
1
1
1
1
1
1
1
1
1
1
1
1
1
1
1
-1
-1
1
1
1
1
1
1
1
1
1
1
1
1
1
1
1
1
1
1
-1
1
1
1
1
1
1
1
-1
-1
1
-1
-1
1
1
-1
1
1
1
1
1
1
1
-1
1
-1
1
1
1
1
1
1
1
1
1
1
1
1
1
1
1
1
1
1
1
1
1
1
1
1
1
1
1
-1
-1
1
1
1
-1
-1
1
1
1
1
-1
1
1
-1
1
-1
1
1
1
1
1
-1
1
1
1
-1
1
1
1
1
1
1
1
1
1
1
1
1
1
1
1
1
1
1
1
1
1
1
1
1
1
1
1
-1
1
1
1
1
1
1
-1
1
1
1
1
1
1
1
1
1
1
1
1
1
1
1
1
1
1
1
1
1
1
1
1
1
1
1
1
1
-1
1
-1
1
1
1
1
1
1
1
-1
1
1
1
1
1
1
1
1
1
1
1
-1
1
1
1
1
1
1
1
1
1
-1
1
1
1
1
1
1
1
-1
1
1
1
1
1
1
1
-1
1
1
1
1
1
1
1
1
1
1
1
1
1
1
1
1
1
1
1
-1
1
-1
1
1
1
1
1
-1
1
1
1
1
1
1
1
1
1
1
1
1
1
1
1
1
1
1
1
1
1
1
1
1
1
-1
1
-1
1
1
1
1
1
1
1
1
1
-1
1
1
1
1
1
-1
1
1
1
1
1
1
1
1
1
1
1
1
1
1
1
-1
1
1
1
1
1
1
1
1
-1
1
1
1
1
1
1
1
1
1
1
1
1
1
1
1
1
1
1
1
1
1
1
1
1
1
1
1
1
1
1
-1
1
1
1
1
1
1
1
1
1
1
1
1
1
1
1
1
-1
1
1
1
1
1
1
1
1
-1
1
1
1
1
1
1
1
1
1
-1
1
1
1
1
1
-1
1
1
1
1
1
1
1
1
1
1
1
1
1
1
1
1
1
1
1
-1
1
1
1
1
1
1
-1
1
1
1
1
1
1
1
1
-1
1
1
1
1
1
1
1
1
1
1
1
1
1
1
-1
1
1
-1
1
1
1
-1
1
1
1
1
1
1
1
1
1
1
1
1
1
1
1
1
-1
1
1
1
1
1
1
1
1
1
1
-1
1
-1
1
1
1
1
1
1
-1
1
1
1
1
1
1
1
1
1
1
1
1
1
1
1
1
1
1
1
1
1
1
1
1
1
1
1
-1
-1
1
1
1
1
1
1
-1
1
1
1
1
1
1
1
1
1
1
1
1
1
-1
1
1
1
1
1
1
1
-1
1
1
1
1
1
1
1
1
1
1
1
1
1
1
1
1
1
1
1
1
1
1
1
1
1
1
1
-1
1
1
1
1
1
1
1
1
1
1
-1
1
1
-1
1
1
1
1
1
1
1
1
1
1
1
1
1
1
1
1
1
1
1
1
1
1
1
1
1
1
1
1
1
-1
1
1
1
1
1
1
1
-1
1
1
1
1
1
1
1
-1
1
1
1
1
-1
1
1
1
1
1
1
1
1
1
1
1
-1
1
-1
1
1
1
-1
1
				</DataArray>
				<DataArray type="Float64" Name="h" NumberOfComponents="1" Format="ascii">
1.2055096993
1.2054866110
1.2094696524
1.2041208892
1.2106693209
1.2094487110
1.2070464818
1.2021046454
1.2065560333
1.1973004815
1.2025850583
1.2078011566
1.2026073172
1.2000549629
1.2029523185
1.1988518644
1.2054096290
1.1983577413
1.2052820190
1.2010645079
1.2115364973
1.2041857710
1.2094209080
1.2130235289
1.2035358563
1.1974928803
1.2081157727
1.2208752930
1.2120946394
1.1981597732
1.1991761888
1.2096510162
1.2036781840
1.2098370884
1.2190811688
1.2146216733
1.2153679014
1.2111257301
1.2210255812
1.2130893119
1.2122132648
1.2206036330
1.2085425817
1.2139453930
1.2146781491
1.2185799102
1.2113646319
1.2210791072
1.2357034418
1.2357953830
1.2138768761
1.2164375813
1.2140191171
1.2276066747
1.2187048730
1.2099778992
1.2183994825
1.2237553373
1.2256617928
1.2256752990
1.2270870676
1.2260761239
1.2342861715
1.2164565028
1.2159337985
1.2249059052
1.2356482628
1.2342582232
1.2261667904
1.2249997337
1.2252720494
1.2190434840
1.2124470063
1.2289813320
1.2270714751
1.2246046183
1.2241502120
1.2276646271
1.2222389827
1.2235115695
1.2287328681
1.2267823513
1.2372774325
1.2339821834
1.2208496680
1.2270372410
1.2295716188
1.2336069252
1.2292819797
1.2381196941
1.2308825155
1.2247129530
1.2283056513
1.2386997883
1.2290317884
1.2269148326
1.2330977769
1.2210945942
1.2231941976
1.2298227278
1.2370902371
1.2289012070
1.2304428771
1.2222798661
1.1927465564
1.2356886301
1.2308992734
1.2362813628
1.2281084494
1.2286528983
1.2381014301
1.2377466563
1.2301340762
1.2322788848
1.2312014369
1.2324324674
1.2299077893
1.1948672819
1.2332838390
1.2317315060
1.1928026696
1.2324631140
1.2284415778
1.1883776091
1.2315633041
1.2353818844
1.2306233774
1.1878056840
1.2315127825
1.2331965774
1.2318113064
1.2307731486
1.2311686923
1.2315824975
1.1937350170
1.2323836559
1.1940677795
1.2319183218
1.2302081692
1.2008051857
1.1877756135
1.1904624701
1.2317714358
1.2050976444
1.2285862812
1.2309909996
1.1970849374
1.2334153423
1.1897835093
1.2326994834
1.1919453293
1.2315749388
1.2317626949
1.2314165874
1.2295246500
1.2326830805
1.2318448970
1.1901743728
1.2321870057
1.1833510781
1.2027527771
1.2328138211
1.1950347019
1.1859104076
1.1891679506
1.2340463891
1.2093680948
1.1988102191
1.1847208883
1.2323451722
1.2317900109
1.1827207057
1.2316161187
1.1897139839
1.2111351864
1.2311953367
1.2069196720
1.2351545158
1.2314788931
1.1859489178
1.2333538194
1.2152534166
1.1831838039
1.2299340197
1.1819485220
1.1804201676
1.2135894223
1.2317237411
1.1837201767
1.1801882288
1.2192006061
1.2315287918
1.1812464749
1.2177486693
1.2313150290
1.2352281162
1.1871540418
1.2230375696
1.2216899241
1.2329678926
1.1798349026
1.2323185080
1.1803127542
1.2320551795
1.2268948321
1.1835861368
1.1983724551
1.1913988083
1.2255424904
1.2062537708
1.2183644179
1.1812880436
1.1857651492
1.1835797681
1.1948142027
1.2222196861
1.2021990867
1.1855330432
1.2144084567
1.1823554882
1.2294368188
1.2402291493
1.2103466112
1.2402623568
1.2338522728
1.2350666645
1.2386872501
1.2382540705
1.2308247163
1.2396084854
1.2332632636
1.2404739140
1.2363646194
1.2338716120
1.2363192453
1.2394632797
1.2196191364
1.1993968708
1.1822714971
1.2070202393
1.2184941724
1.1923879251
1.1848468519
1.2079212914
1.1928348889
1.2000623625
1.1847815586
1.2157967568
1.1958113961
1.1867022852
1.2031546889
1.2147230947
1.1868830175
1.2234258150
1.2222593701
1.1849056256
1.2039319074
1.1963565984
1.1835780084
1.2412760170
1.2108953330
1.2347529414
1.2398353721
1.2423445139
1.2360845391
1.2375041203
1.2373830674
1.2299692782
1.2347251598
1.2427639149
1.2413848094
1.2118997086
1.2407135221
1.2397520827
1.2408143116
1.2312723835
1.2376286972
1.2413557560
1.2428181088
1.2333140810
1.2398761563
1.2359024283
1.2361439871
1.2388505530
1.2422609727
1.2412065079
1.2382120785
1.2000898268
1.1859983193
1.1860601219
1.2009909856
1.2195838716
1.1933093056
1.1938803687
1.2073088059
1.2181203341
1.2084908400
1.1966142441
1.1878122719
1.1849033469
1.1861790504
1.1973583322
1.2159020126
1.2218306964
1.2233445429
1.2036780076
1.2145129255
1.2047236921
1.1879891361
1.2353151936
1.2414666480
1.2412086735
1.2370155670
1.2300644026
1.2441847880
1.2434644536
1.2109236511
1.2433363370
1.2400931101
1.2122196711
1.2443662840
1.2370896384
1.2452571602
1.2401931760
1.2386116483
1.2396146736
1.2430999176
1.2386718020
1.2427403486
1.2436490044
1.2426038381
1.2416751480
1.2384113603
1.2313904905
1.2450778113
1.2338854735
1.2449379855
1.2015358879
1.2493662525
1.2070897967
1.2173507888
1.2085559418
1.1871530559
1.2190911707
1.1939902270
1.2003828019
1.1947228912
1.1871692133
1.2528545949
1.2396285805
1.2211176995
1.2509804691
1.1980648433
1.1890457315
1.2537166898
1.2037301152
1.2446266040
1.2138330828
1.2050523343
1.2539995255
1.2529897657
1.2523460620
1.1861758556
1.2155101539
1.2228840737
1.1971082425
1.2310539862
1.2379728557
1.2465675176
1.1873383930
1.2505126314
1.2555001213
1.1888054931
1.2430706918
1.2455636679
1.2462358242
1.2430967237
1.1886607486
1.2469955208
1.2356829044
1.2298940996
1.2459217023
1.2397254785
1.2104439035
1.2476560248
1.2120281388
1.2377828065
1.2429777585
1.2423668726
1.2026452759
1.2412830329
1.2314042550
1.2445677613
1.2260417060
1.2446721779
1.2472251080
1.1877129432
1.1934135351
1.1962007128
1.2150451778
1.2393738329
1.2453658665
1.2103866453
1.2460036858
1.2203029956
1.2415194553
1.2475645542
1.2341368622
1.2407345679
1.2062957533
1.2446387411
1.2354301286
1.2503286739
1.2409246882
1.2016370962
1.2520592256
1.2506975095
1.2081276157
1.2522694077
1.2388163162
1.2328823377
1.2268361320
1.1952609048
1.2531801960
1.2538412484
1.2476954976
1.2476749303
1.1881715228
1.2550602786
1.2183317214
1.2433987505
1.2554949314
1.2525890808
1.2554384047
1.2478563902
1.2490950457
1.2596698546
1.2507772128
1.2491036962
1.2352072979
1.2426985906
1.2536536212
1.1983985483
1.2575734896
1.2415658778
1.2048906708
1.2424589809
1.2480473727
1.2493149152
1.2569986590
1.2541933926
1.2458935218
1.1873343064
1.2346000065
1.2147332931
1.2268382960
1.2584110891
1.2578384110
1.2493608471
1.2591001330
1.1899246655
1.2223118881
1.2012924326
1.2427300158
1.2113775539
1.2475207791
1.2454224991
1.2382892618
1.2198982840
1.1954116350
1.2461021270
1.2073350602
1.2484156015
1.2138589999
1.2297597628
1.2442715315
1.2619374784
1.2056160271
1.1889447737
1.1885803442
1.1894233962
1.2220228367
1.1983064874
1.2445621285
1.2631623403
1.2620899303
1.2480844558
1.1910927152
1.2462143616
1.1924108920
1.2464855789
1.2342769411
1.2636988546
1.1905074339
1.1877108505
1.1993002303
1.2043008808
1.2642555782
1.2482410048
1.1878349573
1.2588368906
1.2605328338
1.2017237939
1.1962000965
1.2150463652
1.2104732654
1.2416380755
1.1882948545
1.2269643538
1.2510905447
1.1910942910
1.2176638322
1.2552704215
1.2073359328
1.2373987220
1.1889403324
1.2558215565
1.2389679733
1.1887308755
1.2055711946
1.2176673264
1.2462193896
1.2447089067
1.2508774828
1.1997123254
1.2588297663
1.1832482450
1.2510538464
1.2315762338
1.2159303113
1.2558471519
1.2012919615
1.2520343062
1.1942717756
1.1954097471
1.2202896649
1.1905035134
1.2043010175
1.1882903731
1.2315772954
1.2220269421
1.2152267142
1.1963746375
1.1883318142
1.2055908805
1.2026015344
1.1858368703
1.2138616537
1.2103290239
1.1919408378
1.2583317191
1.2009529724
1.1969122325
1.2305512486
1.1899969977
1.2354661449
1.2203717843
1.1880200883
1.2576648554
1.2575311781
1.2120830342
1.1855151925
1.2578420040
1.1983054161
1.2254428871
1.2507797807
1.2104749961
1.2454255926
1.2541204083
1.2459067457
1.2086867710
1.2498073155
1.2591632820
1.2527365046
1.2388208914
1.1889566675
1.2300404246
1.2427874143
1.2552717833
1.2118725779
1.2018172849
1.2493163444
1.2588378862
1.1791044260
1.2475351636
1.1937831640
1.2491150231
1.2503296262
1.2424628993
1.1855027491
1.2476887579
1.2216515226
1.1980945707
1.2270091058
1.1932669373
1.2346050284
1.2161896886
1.1887758463
1.2633322998
1.2098700868
1.2256343897
1.2081491777
1.2622423264
1.1989559379
1.2476976013
1.2006265742
1.2156957305
1.2629127506
1.2507023473
1.1634511941
1.2112641042
1.1916421886
1.2619626911
1.1773220027
1.2427879859
1.1962574408
1.2549040750
1.1942700074
1.2086881050
1.2159332856
1.1997118452
1.2570767499
1.2400669375
1.1899767243
1.1887267684
1.2048506801
1.1697494431
1.2655669147
1.1899932632
1.1985128094
1.2156959375
1.1809447499
1.2047720831
1.2203752275
1.2055717552
1.2120852414
1.1969112493
1.2627075494
1.2664973180
1.2599281315
1.2515624978
1.1883277878
1.2130076949
1.2197078489
1.2136317033
1.2625461315
1.2606353651
1.2305517760
1.2062780810
1.2634744498
1.1683104333
1.2027695694
1.1892584697
1.1944122646
1.1593662507
1.2095252096
1.2184029166
1.2026015062
1.2607568468
1.1998032738
1.1891209042
1.1921346504
1.2576563214
1.2643034469
1.2670727833
1.2584037338
1.1571049420
1.2059624509
1.1903426206
1.1970055949
1.2661819738
1.2669860876
1.2202904145
1.2095006360
1.2179919361
1.1905677059
1.2631644692
1.1887401408
1.1968148575
1.2700779150
1.2685118884
1.2076048141
1.2055494927
1.2647550746
1.2032308523
1.2031853330
1.1798196133
1.2668174759
1.2691588623
1.2681477996
1.1975687014
1.1914001480
1.1706410643
1.1771998334
1.1870790890
1.2663137481
1.2680110039
1.2618049894
1.2642673213
1.1553227077
1.2694027767
1.2706974530
1.1660708950
1.2664963526
1.2645599075
1.1634510248
1.2714845187
1.2009528628
1.2683031134
1.1861730303
1.1905711042
1.2714041855
1.1773215713
1.2700610841
1.2687213540
1.1855139537
1.2672514269
1.1811800205
1.1779262834
1.2660031049
1.2659589764
1.1867027505
1.2074855018
1.2078354320
1.2078173212
1.2074599274
1.2063738456
1.2078076697
1.2025939138
1.2037988406
1.2105385468
1.2094588678
1.2106585407
1.2105236799
1.2065411604
1.2029675043
1.2070571118
1.1992049298
1.2037882361
1.2063652723
1.2015972805
1.1983647914
1.2041155644
1.2094619402
1.2053115787
1.1981659241
1.1993669037
1.2076287825
1.2020916035
1.1974930919
1.2035394145
1.1972948093
1.2024088534
1.2025894148
1.2115593228
1.2013181791
1.2069813751
1.1991976377
1.1991798980
1.2015833183
1.2098393569
1.2036973605
1.2096833987
1.2056557608
1.2130947536
1.2198238428
1.2054078744
1.1988465805
1.2085822362
1.2210568428
1.2076236024
1.1993592100
1.2122310070
1.2000494746
1.2010646295
1.2115542421
1.2093808571
1.2216519564
1.2041612206
1.2153409977
1.2023888973
1.2115326822
1.2069475889
1.2067256591
1.2228592482
1.2210774817
1.2013095698
1.2146847217
1.2138778092
1.2114082952
1.2208475903
1.2130166200
1.2120690548
1.2184174598
1.2177868685
1.2080835812
1.2170675221
1.1976163083
1.2197846786
1.2205809048
1.2190594657
1.2056338917
1.2140483001
1.2216549592
1.2365602063
1.2335297558
1.2066882342
1.2153386284
1.2172248556
1.2228490122
1.2146123904
1.2159746557
1.2110777237
1.2208648684
1.2190817757
1.2342733704
1.2342390480
1.2226080443
1.2153663807
1.2164659358
1.2205817511
1.2233165151
1.2242793295
1.2139052824
1.2289655991
1.2259172314
1.2190441565
1.2124858023
1.2249495126
1.2168110287
1.2157788827
1.2170660784
1.2271932664
1.2190600052
1.2206025454
1.2241464067
1.2252674139
1.2284928177
1.2270607620
1.2177431228
1.2130160062
1.2261642119
1.2174962196
1.1976113473
1.2249979515
1.2172228244
1.2208678281
1.2252024171
1.2226047203
1.2333101790
1.2226216903
1.2365716363
1.2357195600
1.2164232965
1.2335472782
1.2185516633
1.2267839736
1.2339638420
1.2244960456
1.2365785435
1.2358165080
1.2270889904
1.2260775917
1.2129687999
1.2281010165
1.2285064164
1.2256684303
1.2242562748
1.2259264184
1.2222310521
1.2143348005
1.2233208324
1.2174964862
1.2225005426
1.2187031497
1.2264326610
1.2249513603
1.2271952308
1.2099449685
1.2263922612
1.2267136719
1.2167753001
1.2276157388
1.2242853545
1.2256837927
1.2247369916
1.2237579271
1.2157326896
1.2283021400
1.2333282939
1.2222782638
1.2232181957
1.2244999717
1.2184640311
1.2226262183
1.2289000836
1.2363802478
1.2294315478
1.2329755750
1.2248969788
1.2370786789
1.2356686195
1.2206048892
1.2211324809
1.2280207095
1.2269288943
1.2242669214
1.2365931669
1.2298212116
1.2356737929
1.2251864616
1.2362030800
1.2263944640
1.2281011358
1.2377279568
1.2281034130
1.2267222890
1.2301275635
1.2225051163
1.2245854807
1.2389483520
1.2242632443
1.2276696518
1.2142987777
1.2304442228
1.2222088043
1.2380779203
1.2286558739
1.2264363894
1.2294353125
1.2362093733
1.2280458010
1.2280218580
1.2270202047
1.2324559494
1.2297140908
1.2206058542
1.1950380850
1.2242724441
1.2329905053
1.2208202700
1.2234828069
1.2295724097
1.2372872281
1.2287338884
1.2298990469
1.2222408576
1.2364003484
1.1928023186
1.2336187598
1.2184329715
1.2304455439
1.2307790748
1.2380917488
1.1936338810
1.2353717773
1.2301762638
1.2317236391
1.2292908090
1.2290246189
1.2387197191
1.2335613478
1.2381354147
1.2308856597
1.2340960579
1.2235697161
1.2315507055
1.2306074248
1.2389709842
1.2331951460
1.2304490541
1.2348137032
1.2388296439
1.2280541563
1.1950391491
1.2297257097
1.2335053222
1.1937379365
1.2323811469
1.2311544551
1.1927473527
1.2331015976
1.2285985514
1.2376276787
1.1904645758
1.2320907194
1.1936380223
1.2335639525
1.2322863365
1.2362944607
1.1949123643
1.2235709086
1.2317289113
1.2312162105
1.1897840015
1.2381166407
1.2317716606
1.1867127968
1.2324311342
1.2301846359
1.2309912675
1.2341031015
1.2308923384
1.1914827343
1.2260142100
1.2382161201
1.2317936084
1.2348187374
1.2335155323
1.1905400840
1.2315030558
1.2357108974
1.2300848988
1.2317481429
1.2388527430
1.2315768752
1.1948644424
1.2307285078
1.2332880393
1.1956779538
1.1919359827
1.2317645540
1.2295245451
1.1949200704
1.1867112503
1.1988096155
1.1891661582
1.2321064314
1.2322118782
1.1914808246
1.1866426737
1.2333512246
1.2365401329
1.2376499956
1.1883753720
1.2315115359
1.2027614877
1.1904638916
1.2284318086
1.2318116924
1.1947029135
1.1950262504
1.2309832435
1.2328146312
1.1878049664
1.2321883665
1.2300844117
1.1940793421
1.2315805850
1.2320421029
1.2364176250
1.2357186855
1.2322854749
1.2319162453
1.2316183209
1.1967171994
1.1913544695
1.2302077840
1.1956741304
1.2382345671
1.1905468020
1.2317914606
1.2260023210
1.2307276927
1.2323458659
1.2310881056
1.2315014240
1.2317921786
1.1897112402
1.2326988115
1.1831847081
1.2347974869
1.1904648228
1.1866425545
1.2349780774
1.2319043811
1.2318460581
1.2050794780
1.2334157286
1.1970869680
1.1859481854
1.2333520295
1.1946998970
1.2365507557
1.1845519715
1.1877767960
1.2333532448
1.2309819971
1.2069386026
1.2306112247
1.2007988557
1.2322101628
1.1847248157
1.1837217849
1.2326816737
1.2318427267
1.1913584765
1.2347166164
1.2320403878
1.1924159177
1.1967156078
1.2364275900
1.1819505417
1.2322836110
1.2314139163
1.1901759578
1.2310867875
1.2136166965
1.2325399115
1.2313169197
1.2093416523
1.1847244956
1.2349820503
1.2352249387
1.1845516310
1.2318441929
1.2306103017
1.2340711412
1.1821800632
1.2319024101
1.2348012821
1.1849695916
1.2315306252
1.2312526892
1.1859107250
1.2340480424
1.2177709614
1.2342243190
1.1833501502
1.2323225599
1.2315623700
1.1827189670
1.1803147891
1.2111109943
1.2320560311
1.2347190468
1.1847185902
1.1798367776
1.1924135578
1.2217051823
1.2318267015
1.2314770553
1.1877675083
1.1821786210
1.1849690093
1.1812898453
1.2342253136
1.2340732362
1.1843315605
1.2362521689
1.2152309430
1.2312511294
1.2311933025
1.2325356336
1.1810977953
1.1804210511
1.2351581861
1.1857644641
1.2255512691
1.2191847054
1.2332629866
1.2315609598
1.1801863958
1.2318258068
1.2325771679
1.2324137623
1.2299290209
1.1804178543
1.2317224283
1.2294409032
1.1847829986
1.2000616212
1.1886856519
1.1928283296
1.2230289154
1.1804191682
1.2260700029
1.1823279327
1.2079327239
1.1882318123
1.1877691892
1.2196239070
1.1812445759
1.1814363441
1.2362589619
1.1871566576
1.1826447532
1.1963506737
1.1896399344
1.2234262152
1.2039378262
1.1868822620
1.2158065045
1.1810960731
1.1822731402
1.1843313567
1.2340722249
1.2272975797
1.2268916690
1.2325773535
1.2411860309
1.2119124712
1.2324134566
1.2407974214
1.2333172380
1.2361395302
1.2398584014
1.2375588972
1.2382069682
1.2299700756
1.2406934841
1.2329683694
1.2412562357
1.2360850867
1.2347233884
1.2387628401
1.2374952658
1.2397408866
1.2183545916
1.2009905413
1.1892841035
1.1823536999
1.2084962735
1.2195830035
1.1882350316
1.2260700902
1.1886899274
1.1835404819
1.2261005978
1.1938767197
1.1860005616
1.1823263388
1.2062418576
1.1914058503
1.1983749288
1.1835842475
1.2143942719
1.1973549336
1.1879897352
1.1814345007
1.2047268771
1.2159042369
1.1855330050
1.2222148780
1.2233411265
1.1906879303
1.1839492253
1.2021946159
1.1896441819
1.1948217674
1.1826428316
1.2404975235
1.2122245790
1.2272650802
1.2338871064
1.2396137864
1.2427307975
1.2363650222
1.2387766167
1.2363230761
1.2386623834
1.2308234880
1.2338728759
1.2402175915
1.2436338779
1.2425842820
1.2103311333
1.2340740895
1.2396282349
1.2394763741
1.2402832131
1.2300622836
1.2370918122
1.2414611674
1.2434518634
1.2338494831
1.2387015541
1.2375678177
1.2370110367
1.2273010459
1.2350677694
1.2401784163
1.2433185622
1.2415107650
1.2402522666
1.2382591186
1.2015360007
1.1903021533
1.1848444797
1.1835391288
1.1871564792
1.1993988856
1.2184919116
1.2257369046
1.1947221057
1.2261046419
1.1923925772
1.2085577639
1.2190880569
1.2070137883
1.1892861225
1.1980638080
1.1890482091
1.1839470094
1.1852469462
1.1958163711
1.2147174722
1.2228790714
1.1916513423
1.2222604008
1.1906897208
1.2050537961
1.2155089917
1.2031521574
1.1867014437
1.2341350536
1.2413619453
1.2407348712
1.2359057316
1.2312741853
1.2453503134
1.2428352322
1.2120288831
1.2422820423
1.2415294759
1.2430698560
1.2415054921
1.2269776805
1.2108878261
1.2445637137
1.2376274695
1.2459957816
1.2388600606
1.2377833291
1.2398369598
1.2429759294
1.2373876194
1.2272712824
1.2443830777
1.2423568553
1.2427839084
1.2414043358
1.2430792447
1.2397170484
1.2298886843
1.2455579248
1.2347516908
1.2459102447
1.2402329075
1.2520512968
1.2433953313
1.2252394525
1.2522679357
1.2000908317
1.1903019769
1.2507955376
1.2545107583
1.2081275998
1.2419849304
1.2183277251
1.2073057706
1.2527827433
1.2531768970
1.2524930820
1.1860569432
1.2181218922
1.2257436503
1.1952620661
1.2016375926
1.1933111979
1.2354267323
1.2337822895
1.2490926412
1.1881758436
1.2485923716
1.2546763260
1.1911572158
1.2517913562
1.2408715719
1.2223064766
1.2510582815
1.1966167222
1.1878100591
1.2491320123
1.2548735902
1.2048911601
1.2455737001
1.2147308047
1.2036766338
1.2540938239
1.2524584847
1.2508677145
1.1852441967
1.2145119846
1.2218345517
1.1923716487
1.1983990656
1.1916505831
1.2323656646
1.2369217267
1.2472861660
1.1864613921
1.2509919829
1.2548394460
1.1899283813
1.2047339522
1.2445466352
1.2267494455
1.2450867667
1.2229085126
1.2460078681
1.2462125646
1.2416896082
1.1885827291
1.1877236537
1.1954286913
1.2480749363
1.1924118250
1.2124103242
1.2342721327
1.2444012025
1.2313945398
1.2126769733
1.2449539430
1.2230634693
1.2384170687
1.2113764584
1.2482381858
1.2109208247
1.2386113074
1.2431026192
1.2035366320
1.2416362846
1.2017236930
1.2427181193
1.2297529255
1.2443719499
1.2256332113
1.2460864385
1.2475188543
1.2430877756
1.1887585603
1.1880889843
1.1918498726
1.2472814531
1.1947457896
1.2146117529
1.2382862103
1.2442031019
1.2269850930
1.2098692251
1.2452695835
1.2198970608
1.2401026564
1.2484101953
1.2353162924
1.2412091167
1.2056155068
1.2442699322
1.2367880189
1.2586448138
1.2499223146
1.2489404803
1.2389662400
1.2419881622
1.2462170177
1.2515088960
1.2003828681
1.2507828589
1.2560345869
1.2497421601
1.2507736717
1.2378462751
1.2070886683
1.2520359625
1.2400614278
1.2337847776
1.2444079279
1.2279324782
1.2451823282
1.1939899060
1.2523718050
1.2525020712
1.2479310076
1.2576622254
1.2520339860
1.2558452183
1.2461978445
1.1871652534
1.2316266320
1.2546789656
1.2173541745
1.2310570064
1.2328804901
1.2583265004
1.2575265496
1.2444110402
1.2520320432
1.2567265168
1.2527852509
1.2545160537
1.2594092635
1.1911552008
1.2252476534
1.2485954818
1.2494943423
1.2538330579
1.2396329773
1.2592565254
1.2500841534
1.2550579655
1.2477356648
1.2357523842
1.2379754673
1.2434615357
1.2540150253
1.1971087159
1.2508062474
1.2575438918
1.2501255550
1.2411267809
1.2037293140
1.2529922048
1.2433880510
1.2297172293
1.2297153352
1.2485397779
1.1923692042
1.2528607459
1.2537238033
1.2492187520
1.2567356806
1.2544343046
1.2443938970
1.1864579892
1.2360855733
1.2478534735
1.2540017917
1.2138344472
1.2279353470
1.2570705765
1.2570556380
1.2465713062
1.2499994845
1.2554553127
1.2509944271
1.2548430431
1.2599889094
1.1888020026
1.2211232025
1.2455763766
1.2509828185
1.2002420099
1.2412913603
1.2619613472
1.2622395644
1.2472949756
1.2104435676
1.1894213584
1.2472289634
1.1947450785
1.2498062438
1.2460052607
1.2393758497
1.2203043642
1.2633293501
1.1917255750
1.1877214813
1.1943337945
1.2446878231
1.1995679871
1.2064389889
1.2634725103
1.2475735516
1.1896300954
1.2568346633
1.2615135247
1.2047345973
1.1934123413
1.2175468900
1.2175483838
1.2128963660
1.2314096666
1.2446409688
1.2609474604
1.2062964639
1.2174694628
1.1880960528
1.1886579862
1.2300360729
1.2480641360
1.1882435432
1.1896389372
1.2204786751
1.1871767476
1.2574103713
1.1972156827
1.2430840535
1.2629111755
1.2615544988
1.2470082545
1.1908770696
1.2462387278
1.1918487477
1.2468457971
1.2356862995
1.2174704892
1.2625426880
1.1895722010
1.1880865404
1.1927453241
1.2460233145
1.1980948621
1.2033286896
1.2636227550
1.2476616951
1.1882417037
1.2589288374
1.2603964184
1.2026456347
1.1954278364
1.2146128423
1.2013772007
1.2095978510
1.2267564441
1.2423685416
1.2611703584
1.2035368679
1.1875214484
1.1887558539
1.1929217467
1.2250039888
1.2514155464
1.1894205672
1.1896315591
1.2164743299
1.2555026569
1.2226453712
1.1917227077
1.2064389691
1.2378474101
1.1880917151
1.2560364302
1.2352086728
1.2250100198
1.2132976313
1.2396519448
1.1925306720
1.1893445680
1.2033954462
1.2565031061
1.2064678311
1.2469638930
1.1859979302
1.2164780633
1.2123005102
1.2469665130
1.2472893870
1.2451840604
1.1946639559
1.2523675002
1.2491441513
1.2373978836
1.2323694593
1.2565083273
1.2031451522
1.2006002204
1.2586468977
1.2524621684
1.2335818950
1.1848463638
1.2367840922
1.1919115122
1.2515108617
1.2505154347
1.2320004482
1.2313132576
1.2554336827
1.2254503038
1.1824410891
1.2493788834
1.2600641669
1.2369240212
1.2558406681
1.2594428544
1.2175565492
1.1879903347
1.2558426324
1.2571402166
1.2002416038
1.2225631374
1.2524957486
1.1951224045
1.1943322991
1.2555026218
1.2199870919
1.1895681820
1.2033283137
1.2341556269
1.1875175406
1.2540169023
1.2320017986
1.2510520922
1.2204835800
1.2151387697
1.2427007565
1.1955926482
1.1889309922
1.2055493737
1.2034765781
1.1843780461
1.2128986155
1.2103475273
1.2409219990
1.2493633709
1.2415673182
1.1905717761
1.2523548155
1.2588278361
1.2567324040
1.2006430434
1.1978005836
1.2575753379
1.2296962307
1.1828435696
1.1906786060
1.2485416654
1.2594383493