<VTKFile type="UnstructuredGrid" version="0.1">
	<UnstructuredGrid>
		<Piece NumberOfPoints="1862" NumberOfCells="3498">
			<CellData>
				<DataArray type="Int32" Name="type" NumberOfComponents="1" Format="ascii">
0
0
0
0
0
0
0
0
0
0
0
0
0
0
0
0
1
0
0
1
0
0
0
0
0
0
0
0
0
0
0
0
0
1
0
0
0
0
0
0
0
0
0
0
0
0
0
0
0
0
1
0
0
0
0
0
0
0
0
0
0
1
0
0
0
0
0
0
0
0
0
0
0
0
0
0
0
0
0
0
0
0
0
0
0
0
0
0
0
0
0
0
0
0
0
0
0
0
0
0
0
0
0
0
0
0
0
0
0
0
0
0
0
0
0
0
0
0
0
0
0
0
0
1
0
0
0
0
0
0
0
0
0
0
0
0
0
0
0
0
0
0
0
0
0
0
0
0
0
0
0
1
0
1
1
0
0
0
0
0
0
0
0
0
0
0
0
0
1
0
1
0
0
0
0
1
0
0
0
0
0
0
0
0
1
1
0
0
0
0
0
1
0
0
0
0
0
0
0
0
1
0
0
0
0
0
0
0
0
0
0
0
0
0
0
0
0
0
0
0
0
0
0
0
0
0
0
0
0
0
0
0
0
1
0
0
0
0
0
0
0
0
0
0
0
0
0
0
0
0
0
0
0
0
0
0
0
0
0
0
0
0
0
0
0
0
0
0
0
0
0
0
0
0
0
0
0
0
0
0
0
1
0
0
0
0
0
0
0
0
0
0
0
0
0
0
0
0
0
0
0
0
0
0
0
0
0
0
0
0
0
0
0
0
0
0
0
0
0
0
0
0
0
0
0
0
0
0
0
0
0
0
1
0
0
0
0
0
0
0
0
0
0
0
0
0
0
0
0
0
0
0
0
0
0
0
0
0
0
0
0
0
0
0
0
0
0
0
0
0
0
0
0
0
0
0
0
0
0
0
0
0
0
0
0
0
0
0
0
0
1
0
0
0
0
0
0
0
0
0
0
0
0
0
0
0
0
0
0
0
0
0
0
0
0
0
0
0
0
0
0
0
0
0
0
0
0
0
0
0
0
0
0
0
0
0
0
0
0
0
0
0
0
0
0
0
0
0
0
0
0
0
0
0
0
0
0
0
0
0
0
0
0
0
0
0
0
0
0
0
0
0
0
0
0
0
0
0
0
0
0
0
0
0
0
0
0
0
0
0
0
0
0
0
0
0
0
0
0
0
0
0
0
0
0
0
0
0
0
0
0
0
0
0
0
0
0
0
0
0
0
0
0
1
0
0
0
0
0
0
0
0
0
0
0
0
0
0
0
0
0
0
0
1
0
0
0
0
0
0
0
0
0
0
0
0
0
0
0
0
0
0
0
0
0
0
0
0
0
0
0
0
0
0
0
0
0
0
0
0
0
0
0
0
0
0
0
0
0
0
0
0
0
0
0
0
0
1
0
0
0
0
0
0
0
0
0
0
0
0
0
0
0
0
0
0
0
0
0
0
0
1
0
0
0
0
0
0
0
0
0
0
0
0
0
0
0
0
0
0
0
1
0
0
0
1
0
0
0
0
0
0
0
0
0
0
0
0
0
0
0
0
0
0
0
0
0
0
0
0
0
1
0
0
0
0
0
0
0
1
0
0
0
0
0
0
0
0
0
0
0
0
0
0
0
0
0
0
0
0
0
0
0
0
0
0
1
0
0
0
0
0
0
0
1
0
0
0
0
0
0
1
0
0
0
0
0
0
0
0
0
0
0
0
0
0
0
0
0
0
0
0
0
0
0
0
0
0
0
0
0
0
0
0
0
0
0
0
0
0
1
0
0
0
0
0
1
0
0
0
0
0
0
0
1
0
0
0
0
0
0
0
0
0
0
0
0
0
1
0
0
0
0
0
0
0
0
0
0
0
0
0
0
0
0
0
0
0
0
0
0
0
0
0
0
0
0
0
0
0
0
0
0
0
0
0
0
0
0
0
0
0
0
0
0
0
0
0
0
0
0
0
1
0
0
0
0
0
0
0
0
0
0
0
0
0
0
0
0
0
0
0
1
0
0
0
0
0
0
0
0
0
1
0
0
0
0
0
0
0
0
0
0
0
0
0
0
0
0
0
0
0
0
0
0
0
0
0
0
0
0
0
1
0
1
0
0
0
0
0
0
0
0
0
0
0
0
0
0
0
0
0
0
0
0
0
0
0
0
0
0
0
1
0
0
0
1
0
0
0
0
0
0
0
0
0
0
0
0
0
0
0
0
0
0
0
0
0
0
0
0
0
0
0
0
1
0
0
0
0
0
0
0
0
0
0
0
0
0
0
0
0
0
0
0
0
0
0
0
0
0
1
0
0
0
0
0
0
0
0
0
0
0
0
0
0
0
0
0
0
0
0
0
0
0
1
0
0
0
0
0
0
1
0
0
0
0
0
0
0
0
0
0
0
1
0
0
0
0
0
0
0
0
0
0
0
0
0
0
0
0
0
0
0
0
1
0
0
0
0
0
0
0
0
0
0
0
1
0
0
0
0
0
0
0
0
0
0
0
0
0
0
0
0
0
0
0
0
0
1
0
0
0
0
0
0
0
0
0
1
1
0
1
0
1
0
0
0
0
0
0
0
0
0
0
0
1
0
0
0
0
0
1
1
0
0
0
0
0
0
1
0
0
0
0
0
1
1
1
0
0
0
0
0
0
0
0
0
0
0
0
1
1
0
0
1
0
0
0
0
0
1
0
0
0
1
0
1
0
0
0
0
0
0
0
1
0
0
0
0
0
0
0
1
0
0
1
0
0
0
0
0
0
0
0
0
0
0
0
0
0
0
1
0
0
0
0
0
0
0
0
0
0
0
0
0
0
0
0
0
0
0
0
0
0
0
0
0
0
0
0
0
0
0
0
0
0
0
0
1
0
0
0
0
0
0
1
0
0
0
1
0
0
0
0
0
0
0
0
0
0
0
1
0
0
0
0
0
0
0
0
0
0
0
0
0
0
0
0
0
0
0
0
0
0
0
0
0
0
0
0
0
0
0
0
0
0
0
0
0
0
0
0
1
1
0
0
0
0
0
0
0
0
0
0
0
0
0
1
0
0
0
0
0
0
0
0
0
0
0
0
0
0
0
0
0
0
0
0
0
0
0
0
0
0
0
0
0
0
0
0
0
0
0
0
0
0
0
0
0
0
0
0
0
0
0
0
0
0
0
0
0
0
0
0
0
0
0
0
0
0
0
0
0
0
0
0
0
0
0
0
1
1
0
0
0
0
0
0
0
0
1
0
0
0
0
0
0
0
0
0
0
0
0
0
0
0
0
0
0
0
0
0
0
0
1
0
0
0
0
0
0
0
0
0
0
0
0
0
0
0
0
1
0
0
0
0
0
0
0
0
0
0
0
0
0
0
0
0
0
0
0
0
0
0
0
0
0
0
0
0
0
0
0
0
0
0
0
0
0
0
0
0
0
0
0
0
0
0
0
0
0
0
0
0
0
0
0
0
0
0
0
0
0
0
0
0
0
0
0
0
0
0
0
0
0
0
0
0
0
0
0
0
0
0
0
0
0
0
0
0
0
0
1
1
0
0
0
0
0
1
0
0
0
0
0
0
0
0
0
0
0
0
1
0
0
0
0
0
0
0
0
0
0
0
0
0
0
0
0
0
0
0
0
0
0
0
0
0
0
0
0
0
0
0
0
0
0
0
0
0
0
0
0
0
0
0
0
0
0
0
0
0
0
0
0
0
1
0
1
0
0
0
0
0
0
0
0
0
0
0
0
0
0
0
0
0
0
1
0
0
0
0
0
0
0
0
0
0
0
0
0
0
0
0
0
0
0
0
0
0
0
0
0
0
0
0
0
0
0
0
0
0
0
0
0
0
0
0
0
0
0
0
0
0
0
0
0
0
0
0
0
0
0
0
0
0
0
0
0
0
0
0
0
0
0
0
0
0
1
0
0
0
0
0
0
0
0
0
0
1
0
0
0
0
0
0
0
0
0
0
0
0
0
0
0
0
0
0
0
0
0
0
0
0
0
0
0
0
0
0
0
0
0
0
0
0
0
1
0
0
0
0
0
0
0
0
0
0
0
0
0
0
0
0
0
0
0
0
0
0
0
0
0
0
0
0
0
0
0
0
0
0
0
0
0
0
0
0
0
0
0
0
0
0
0
0
0
0
0
0
0
0
0
0
0
0
0
0
0
0
0
0
0
0
0
0
0
0
0
0
0
0
0
0
0
0
0
0
0
1
0
0
0
0
0
0
0
0
0
0
0
0
0
0
0
0
0
0
0
0
0
0
0
0
0
0
0
0
0
0
0
0
0
0
0
0
0
0
0
0
0
0
0
0
0
0
0
0
0
0
0
0
0
0
0
0
0
0
0
0
0
0
0
0
0
0
0
0
0
0
0
0
0
0
0
0
0
0
0
0
0
0
0
0
0
0
0
0
0
0
0
0
0
0
0
0
0
0
0
0
0
0
0
0
0
0
0
0
0
0
0
0
0
0
0
0
0
0
0
0
0
0
0
1
0
0
0
0
0
0
0
0
0
0
0
0
0
0
0
0
0
0
0
0
0
0
0
0
0
0
0
0
0
0
0
0
0
0
0
0
0
0
0
0
0
0
0
0
0
0
0
0
0
0
0
0
0
0
0
0
0
0
0
0
0
0
0
0
0
0
0
0
0
0
0
0
0
0
0
0
0
0
0
0
0
1
0
0
0
0
0
0
0
1
0
0
0
0
0
0
0
0
0
0
0
0
0
0
0
0
0
0
0
0
0
0
0
0
0
0
0
0
0
0
0
0
0
0
0
0
0
1
0
0
0
0
0
0
0
0
0
0
0
0
0
0
0
0
0
0
0
0
0
1
0
0
0
0
0
0
0
0
0
0
0
0
1
1
0
0
0
0
0
0
0
0
0
0
0
0
0
0
0
1
1
0
1
0
0
0
0
0
0
0
0
0
1
0
0
0
0
0
0
1
0
0
0
0
0
0
0
0
0
0
1
0
0
0
0
1
0
1
0
0
0
0
0
0
0
1
0
0
0
1
0
0
0
1
0
1
1
0
0
1
1
0
0
0
1
0
0
0
1
0
0
0
0
0
0
0
0
0
1
0
0
0
0
0
0
1
0
0
0
0
0
0
0
0
0
0
0
0
0
0
0
0
0
0
0
0
0
0
0
0
0
0
0
1
0
0
1
0
0
0
0
0
0
0
0
0
0
0
0
0
0
0
0
0
0
1
0
0
1
0
0
0
0
0
0
0
0
0
0
0
1
0
0
1
0
0
0
0
0
0
0
0
0
0
0
1
1
0
0
0
0
0
0
0
0
0
0
0
0
1
0
0
0
0
0
0
0
0
0
0
0
0
0
0
0
0
0
1
0
0
0
0
0
0
0
0
0
0
0
0
0
0
0
0
0
1
0
0
0
0
0
0
0
0
0
0
0
0
0
0
0
0
0
0
0
0
0
0
0
0
0
0
0
0
0
0
0
0
0
0
0
0
0
0
0
0
1
0
0
0
0
0
0
0
0
0
0
0
0
0
0
0
0
0
0
0
0
0
0
0
0
0
0
0
0
0
0
0
0
0
0
0
0
0
0
0
0
0
0
0
0
0
1
0
0
0
0
0
0
0
0
0
0
0
0
0
0
0
0
0
0
0
0
0
0
0
0
0
0
0
0
0
0
0
0
0
0
0
0
0
0
0
0
0
0
0
0
0
0
0
1
0
0
0
0
0
0
0
0
0
0
1
0
0
0
0
0
0
0
0
0
0
0
0
0
0
0
1
0
0
1
0
0
0
0
0
0
0
0
0
0
0
0
0
0
0
0
0
0
0
0
0
0
0
1
0
0
0
0
0
0
0
0
0
0
0
0
0
0
0
0
0
0
0
0
0
0
0
0
0
0
0
0
0
0
0
0
0
0
0
1
0
0
0
0
0
0
0
0
0
0
0
0
0
0
0
0
0
0
0
0
0
0
0
0
0
0
0
0
0
0
0
0
0
0
0
0
0
0
0
0
0
0
0
0
0
0
0
0
0
0
0
0
0
0
0
0
0
0
0
0
0
0
0
0
0
0
0
0
0
0
0
0
0
0
0
0
1
0
0
0
0
0
0
0
0
0
0
0
0
0
0
0
0
0
0
0
0
0
0
0
0
0
0
0
0
0
0
0
0
0
0
0
0
0
0
0
1
0
0
0
0
0
0
0
0
0
0
0
0
1
1
0
0
0
0
0
0
0
0
0
0
0
0
0
0
0
0
0
0
0
0
0
0
0
0
0
0
0
0
0
0
0
0
0
0
0
0
0
0
0
0
0
0
0
0
0
0
0
0
0
0
0
0
0
0
0
0
0
0
0
0
0
0
0
0
0
0
0
0
0
0
0
0
0
0
0
0
0
0
0
0
0
0
0
0
0
0
0
0
0
0
0
0
0
0
0
0
0
0
0
0
0
1
0
1
0
0
0
0
0
0
0
1
1
1
1
0
0
0
0
0
0
0
0
0
0
0
0
0
0
0
0
0
0
0
0
0
0
0
0
0
0
0
0
1
1
0
0
0
0
0
0
0
0
0
0
0
0
0
0
0
0
0
0
1
0
0
0
0
0
0
0
1
1
0
1
1
0
0
1
0
0
0
0
0
0
0
1
0
1
0
0
0
0
0
0
0
0
0
0
0
0
0
0
0
0
0
0
0
0
0
0
0
0
0
0
0
1
1
0
0
0
1
1
0
0
0
0
1
0
0
1
0
1
0
0
0
0
0
1
0
0
0
1
0
0
0
0
0
0
0
0
0
0
0
0
0
0
0
0
0
0
0
0
0
0
0
0
0
0
0
1
0
0
0
0
0
0
1
0
0
0
0
0
0
0
0
0
0
0
0
0
0
0
0
0
0
0
0
0
0
0
0
0
0
0
0
0
1
0
1
0
0
0
0
0
0
0
1
0
0
0
0
0
0
0
0
0
0
0
1
0
0
0
0
0
0
0
0
0
1
0
0
0
0
0
0
0
1
0
0
0
0
0
0
0
1
0
0
0
0
0
0
0
0
0
0
0
0
0
0
0
0
0
0
0
1
0
1
0
0
0
0
0
1
0
0
0
0
0
0
0
0
0
0
0
0
0
0
0
0
0
0
0
0
0
0
0
0
0
1
0
1
0
0
0
0
0
0
0
0
0
1
0
0
0
0
0
1
0
0
0
0
0
0
0
0
0
0
0
0
0
0
0
1
0
0
0
0
0
0
0
0
1
0
0
0
0
0
0
0
0
0
0
0
0
0
0
0
0
0
0
0
0
0
0
0
0
0
0
0
0
0
0
1
0
0
0
0
0
0
0
0
0
0
0
0
0
0
0
0
1
0
0
0
0
0
0
0
0
1
0
0
0
0
0
0
0
0
0
1
0
0
0
0
0
1
0
0
0
0
0
0
0
0
0
0
0
0
0
0
0
0
0
0
0
1
0
0
0
0
0
0
1
0
0
0
0
0
0
0
0
1
0
0
0
0
0
0
0
0
0
0
0
0
0
0
1
0
0
1
0
0
0
1
0
0
0
0
0
0
0
0
0
0
0
0
0
0
0
0
1
0
0
0
0
0
0
0
0
0
0
1
0
1
0
0
0
0
0
0
1
0
0
0
0
0
0
0
0
0
0
0
0
0
0
0
0
0
0
0
0
0
0
0
0
0
0
0
1
1
0
0
0
0
0
0
1
0
0
0
0
0
0
0
0
0
0
0
0
0
1
0
0
0
0
0
0
0
1
0
0
0
0
0
0
0
0
0
0
0
0
0
0
0
0
0
0
0
0
0
0
0
0
0
0
0
1
0
0
0
0
0
0
0
0
0
0
1
0
0
1
0
0
0
0
0
0
0
0
0
0
0
0
0
0
0
0
0
0
0
0
0
0
0
0
0
0
0
0
0
1
0
0
0
0
0
0
0
1
0
0
0
0
0
0
0
1
0
0
0
0
1
0
0
0
0
0
0
0
0
0
0
0
1
0
1
0
0
0
1
0
				</DataArray>
				<DataArray type="Float64" Name="h" NumberOfComponents="1" Format="ascii">
1.1831254803
1.1831218681
1.1836349438
1.1829894417
1.1837506621
1.1837477727
1.1833348960
1.1827023043
1.1833558301
1.1821801406
1.1828384078
1.1835107566
1.1826847663
1.1825204266
1.1828121934
1.1822508464
1.1830780752
1.1823037389
1.1829406210
1.1824900654
1.1839894046
1.1826741803
1.1832286843
1.1841012760
1.1828871806
1.1823108088
1.1827795041
1.1839672800
1.1836584815
1.1822468004
1.1822870550
1.1833892524
1.1825609569
1.1838286652
1.1852257683
1.1841060100
1.1846218283
1.1831373056
1.1837223032
1.1841466715
1.1838008006
1.1844667341
1.1829247966
1.1835675753
1.1842469357
1.1839383188
1.1833010626
1.1856890116
1.1865395973
1.1860335884
1.1844889266
1.1840591708
1.1837437086
1.1853643160
1.1845960231
1.1827729232
1.1841321065
1.1862042226
1.1861297139
1.1856150381
1.1870386207
1.1869849636
1.1866176599
1.1842548605
1.1835874140
1.1842832849
1.1855293313
1.1861058936
1.1867420627
1.1867128243
1.1861869384
1.1849479635
1.1829503007
1.1856379464
1.1858861567
1.1833234740
1.1861261636
1.1866881474
1.1858829452
1.1836141841
1.1874450819
1.1845643627
1.1872006964
1.1855792543
1.1832354092
1.1837615125
1.1876535174
1.1850231513
1.1865268979
1.1867964883
1.1872916942
1.1835226658
1.1869567766
1.1863569958
1.1842740831
1.1839887688
1.1845274533
1.1833822926
1.1837972706
1.1874451762
1.1870796359
1.1877274964
1.1848235868
1.1860917204
1.1817186555
1.1850744044
1.1839270461
1.1867532524
1.1865145254
1.1845228612
1.1861578587
1.1866328282
1.1870804098
1.1869540235
1.1853581449
1.1881542296
1.1850895855
1.1820004195
1.1874814525
1.1858983955
1.1817425009
1.1847825426
1.1834334142
1.1809404739
1.1867292411
1.1870500600
1.1856293148
1.1811337337
1.1883513179
1.1879751641
1.1878223612
1.1841921492
1.1861881238
1.1888379865
1.1817216128
1.1875771247
1.1820594856
1.1886075146
1.1881714305
1.1822737500
1.1813235288
1.1811676163
1.1879885282
1.1824763102
1.1836704756
1.1877651785
1.1821082788
1.1883816364
1.1812881373
1.1886581142
1.1818636549
1.1889574875
1.1887029458
1.1891395358
1.1879546428
1.1882971524
1.1892693700
1.1816001681
1.1888177803
1.1806589726
1.1823428539
1.1885715462
1.1820569374
1.1810488469
1.1814130544
1.1879481278
1.1826252778
1.1822224327
1.1804094654
1.1883560519
1.1892262167
1.1803111318
1.1891923314
1.1815547018
1.1825816449
1.1896728886
1.1824736030
1.1878841034
1.1895480335
1.1810854931
1.1881055051
1.1826648730
1.1807316485
1.1833284502
1.1804302069
1.1795745366
1.1827422948
1.1892141052
1.1802251117
1.1793171391
1.1827408086
1.1895488557
1.1802501234
1.1828448625
1.1896178468
1.1878715851
1.1814396617
1.1828146611
1.1829297575
1.1884256182
1.1792364180
1.1835533913
1.1794959871
1.1889950556
1.1828901214
1.1811962082
1.1821599258
1.1818633780
1.1830020173
1.1823674595
1.1825699529
1.1800105363
1.1813564478
1.1811888253
1.1820302756
1.1826188985
1.1822636295
1.1814356475
1.1825137148
1.1807825734
1.1830866958
1.1862189992
1.1824483592
1.1852976770
1.1834392760
1.1879468036
1.1870415852
1.1844234461
1.1829757151
1.1866484248
1.1884694876
1.1857643045
1.1839420175
1.1881522104
1.1876921839
1.1848550011
1.1824511115
1.1821373233
1.1807180006
1.1822250818
1.1822836524
1.1819437816
1.1815159057
1.1823230957
1.1819425856
1.1821994867
1.1813927629
1.1824091893
1.1820610377
1.1816732631
1.1821879263
1.1822668545
1.1816027878
1.1824983989
1.1823056958
1.1815349661
1.1822651445
1.1821045431
1.1811840792
1.1855062493
1.1822491121
1.1830656833
1.1840070729
1.1849095780
1.1836566383
1.1874040147
1.1874372643
1.1827369883
1.1878631580
1.1857993044
1.1865889623
1.1823687390
1.1863702651
1.1845857748
1.1850502635
1.1826281646
1.1835337301
1.1844586791
1.1853600357
1.1831782437
1.1867574193
1.1876155629
1.1876575108
1.1872046840
1.1862124051
1.1859501185
1.1841408036
1.1820829232
1.1816615587
1.1817586484
1.1821358216
1.1821569734
1.1820110971
1.1820204978
1.1820596327
1.1819960008
1.1821463969
1.1820634499
1.1818525326
1.1815304202
1.1817969426
1.1820996512
1.1821448878
1.1819984580
1.1821843015
1.1820783789
1.1820105089
1.1821463274
1.1817926442
1.1827113190
1.1841873844
1.1836112033
1.1873416929
1.1823966943
1.1861435135
1.1850953413
1.1820342708
1.1859422276
1.1869509516
1.1821433833
1.1845108185
1.1832638048
1.1853797922
1.1869327664
1.1831542309
1.1837295781
1.1840642663
1.1871651759
1.1846412411
1.1855322956
1.1863167339
1.1867328411
1.1871132736
1.1822980437
1.1849527634
1.1828132983
1.1857801107
1.1820451292
1.1856507923
1.1818799764
1.1817141923
1.1819507451
1.1818722918
1.1818665322
1.1820554984
1.1820098031
1.1820597742
1.1819503454
1.1849865767
1.1819841601
1.1817045123
1.1835831630
1.1820692453
1.1819505031
1.1850904300
1.1819502711
1.1821222399
1.1817518636
1.1820007804
1.1838835976
1.1843455053
1.1852424022
1.1817927256
1.1818760021
1.1818819049
1.1820474965
1.1812995643
1.1816108145
1.1827713796
1.1820072581
1.1828944152
1.1843523068
1.1819989820
1.1864893044
1.1846851306
1.1841232110
1.1864753552
1.1826668163
1.1857109647
1.1823832423
1.1820762665
1.1855149323
1.1868576042
1.1818102579
1.1849692921
1.1819061962
1.1828955022
1.1837940498
1.1832411484
1.1810830975
1.1866433023
1.1819940550
1.1842428308
1.1807962911
1.1862803971
1.1845539296
1.1832207889
1.1819958338
1.1816303838
1.1807459269
1.1828030147
1.1858803785
1.1807997909
1.1851133193
1.1807457439
1.1866951118
1.1853583045
1.1824690262
1.1833422606
1.1809106706
1.1836841857
1.1816243279
1.1843250745
1.1817576769
1.1819354311
1.1852419805
1.1850566399
1.1817427024
1.1839757858
1.1822518233
1.1811172874
1.1810179539
1.1820765838
1.1846857463
1.1850997886
1.1835016300
1.1858290907
1.1820482348
1.1840211897
1.1815889468
1.1823699080
1.1849550016
1.1832835987
1.1846477684
1.1825045594
1.1831794558
1.1838020373
1.1847071415
1.1856235874
1.1809785554
1.1815742792
1.1824503908
1.1820202712
1.1833389149
1.1813031562
1.1818374447
1.1826580933
1.1817571033
1.1839201374
1.1837345616
1.1830230462
1.1859781118
1.1820034398
1.1818699683
1.1816111751
1.1810179099
1.1846731520
1.1843457252
1.1822792408
1.1844781979
1.1820841544
1.1816001752
1.1818112680
1.1864044297
1.1816642596
1.1842912638
1.1830780347
1.1825566238
1.1806065971
1.1820829567
1.1860370544
1.1815291281
1.1850997146
1.1813592493
1.1817831243
1.1834212918
1.1843052710
1.1808685981
1.1822099377
1.1828156455
1.1826623585
1.1813462357
1.1819586821
1.1862491247
1.1834148189
1.1838641264
1.1854570231
1.1823653050
1.1838598564
1.1818609542
1.1813431430
1.1821527957
1.1842760114
1.1822081761
1.1832189279
1.1813221953
1.1816618399
1.1839219297
1.1847077726
1.1828605096
1.1824999828
1.1832854000
1.1810984560
1.1816292039
1.1807456379
1.1814258956
1.1829834807
1.1821896900
1.1813992301
1.1815732303
1.1823669266
1.1813324944
1.1822941097
1.1815282591
1.1808851068
1.1822067009
1.1828054828
1.1812586691
1.1822710346
1.1814940465
1.1813321563
1.1819175210
1.1814358771
1.1854280417
1.1818324952
1.1834894856
1.1841074974
1.1820982792
1.1807409566
1.1811931896
1.1833874545
1.1818098918
1.1826510362
1.1821201700
1.1820806361
1.1805075338
1.1822051224
1.1816607748
1.1821862922
1.1807409237
1.1813460898
1.1805255997
1.1812324802
1.1822627180
1.1807339502
1.1816595620
1.1838605841
1.1813587069
1.1805996185
1.1816474598
1.1846678889
1.1809382939
1.1819919730
1.1806303935
1.1822560945
1.1807669027
1.1811826042
1.1822243559
1.1840571539
1.1845939481
1.1812512668
1.1829854304
1.1843461828
1.1819568636
1.1805430945
1.1847075978
1.1814251800
1.1830785879
1.1818711886
1.1859815176
1.1813538759
1.1816423124
1.1829637727
1.1819619474
1.1822516390
1.1824444029
1.1815227208
1.1810726184
1.1822942635
1.1810199576
1.1814934466
1.1839217535
1.1825001284
1.1849379314
1.1812967265
1.1821574224
1.1856240375
1.1843263268
1.1826580969
1.1814518256
1.1858310194
1.1803270195
1.1814056523
1.1805023777
1.1809813662
1.1818698590
1.1809657429
1.1824445173
1.1842155096
1.1807130512
1.1806462273
1.1811289105
1.1841063124
1.1817243386
1.1835028931
1.1808202641
1.1804307854
1.1835462033
1.1850563240
1.1844254064
1.1805062587
1.1823088239
1.1832633184
1.1822710073
1.1810726291
1.1819555791
1.1818257249
1.1821179965
1.1813531138
1.1811928541
1.1818310990
1.1848080574
1.1809488531
1.1824030128
1.1822680598
1.1812894653
1.1812301045
1.1832800213
1.1822533110
1.1806606899
1.1804306720
1.1809299596
1.1805805337
1.1811824589
1.1814931089
1.1812507083
1.1819902112
1.1827528067
1.1835182296
1.1824132008
1.1815502299
1.1822595390
1.1804569025
1.1804037802
1.1809198731
1.1843604928
1.1829612794
1.1806303647
1.1806322598
1.1838031838
1.1798965566
1.1812779620
1.1825595341
1.1820538535
1.1793374627
1.1809853223
1.1809058864
1.1816584330
1.1824755170
1.1815042677
1.1825600823
1.1823035917
1.1821157714
1.1830229577
1.1837324018
1.1821976566
1.1817883439
1.1811043331
1.1824787146
1.1817724660
1.1839769928
1.1840711419
1.1805073947
1.1805109429
1.1804445098
1.1807642272
1.1827113866
1.1804417673
1.1804281226
1.1839096805
1.1835879830
1.1806711586
1.1806705469
1.1828827848
1.1806884518
1.1806659933
1.1801394195
1.1831679056
1.1837852774
1.1833797426
1.1809832366
1.1814288177
1.1803915256
1.1811805805
1.1808304071
1.1831312094
1.1833338722
1.1827108343
1.1829224566
1.1795213172
1.1835273184
1.1837006688
1.1818122956
1.1835180077
1.1832815433
1.1844249896
1.1838466330
1.1809376679
1.1836375094
1.1825714155
1.1818373206
1.1838709696
1.1822707980
1.1837332847
1.1839762468
1.1829840821
1.1839177321
1.1840561179
1.1863139540
1.1837757072
1.1841359782
1.1834853625
1.1832337346
1.1833755599
1.1833718860
1.1832291403
1.1834007349
1.1835132599
1.1828411683
1.1830112953
1.1836995864
1.1837508699
1.1837473005
1.1836955876
1.1833519771
1.1828155549
1.1833377987
1.1824553800
1.1830083684
1.1833980979
1.1827180855
1.1823062042
1.1829875760
1.1836322819
1.1829448767
1.1822495690
1.1822800146
1.1834427794
1.1826990383
1.1823121012
1.1828886060
1.1821776254
1.1826290691
1.1826821217
1.1840462859
1.1823797913
1.1830219212
1.1824525437
1.1822893384
1.1827151506
1.1838302190
1.1825634921
1.1833945962
1.1825978225
1.1841493183
1.1835742630
1.1830768239
1.1822493292
1.1829294838
1.1837276885
1.1834406466
1.1822779842
1.1838055449
1.1825178061
1.1824888259
1.1840439095
1.1832226989
1.1855660718
1.1826710547
1.1846091019
1.1826263902
1.1839872988
1.1830174823
1.1828984132
1.1842783486
1.1856904306
1.1823781753
1.1842500919
1.1844903502
1.1833076391
1.1839615273
1.1840982259
1.1836527300
1.1841375140
1.1833437875
1.1827757865
1.1847292377
1.1822195483
1.1835692263
1.1847299937
1.1853721906
1.1825950668
1.1837500072
1.1855644893
1.1862642249
1.1863849887
1.1828940519
1.1846069796
1.1846932655
1.1842746968
1.1841023238
1.1835947304
1.1831310289
1.1851529969
1.1852242079
1.1866193432
1.1861056654
1.1845071303
1.1846199971
1.1842590022
1.1847268759
1.1858462043
1.1858302922
1.1835603537
1.1856385239
1.1853564571
1.1849506653
1.1829550708
1.1865440044
1.1831158275
1.1833615584
1.1847270874
1.1872506122
1.1853708018
1.1844636699
1.1861272514
1.1861879382
1.1859026310
1.1858872629
1.1833376706
1.1831436173
1.1867428246
1.1851246999
1.1822173212
1.1867135948
1.1846906765
1.1851510455
1.1840452288
1.1845035672
1.1858551496
1.1853439348
1.1857758179
1.1865380052
1.1840545168
1.1863847436
1.1839323359
1.1845666665
1.1855782255
1.1848127695
1.1862637103
1.1860341320
1.1870379289
1.1869842927
1.1831374150
1.1872303258
1.1859017574
1.1861284770
1.1855994448
1.1853547463
1.1831210338
1.1829160849
1.1858447826
1.1851234246
1.1850265624
1.1845929934
1.1865915805
1.1865429611
1.1872501911
1.1827690046
1.1848141829
1.1861202089
1.1831112898
1.1853623251
1.1858289626
1.1856133927
1.1835251663
1.1862031349
1.1833546795
1.1869576752
1.1858549753
1.1860927001
1.1838014903
1.1848103793
1.1830179565
1.1853417493
1.1877279003
1.1853138210
1.1872340312
1.1853310065
1.1842800743
1.1870839419
1.1855311634
1.1856582128
1.1833865877
1.1874872848
1.1839911249
1.1850711739
1.1857777649
1.1874461454
1.1850716457
1.1840421418
1.1874978648
1.1848116255
1.1865156039
1.1866355988
1.1872297497
1.1861191782
1.1870810760
1.1850242321
1.1833221463
1.1858949569
1.1855977869
1.1866873325
1.1829116434
1.1874288458
1.1831191674
1.1861576041
1.1845248818
1.1865905583
1.1872330619
1.1874936649
1.1851050826
1.1874867055
1.1837599230
1.1847823951
1.1861977442
1.1856570257
1.1820757000
1.1850687852
1.1853312832
1.1832325048
1.1836107851
1.1876527227
1.1871956135
1.1874443821
1.1850912253
1.1858818023
1.1853170133
1.1817450553
1.1850246976
1.1830144739
1.1874277410
1.1841926012
1.1856718287
1.1819013737
1.1870531713
1.1867208299
1.1872436042
1.1865258168
1.1842727743
1.1863557000
1.1876018415
1.1867923808
1.1872902095
1.1871432353
1.1863544871
1.1867296937
1.1856300154
1.1858971821
1.1879770759
1.1848227507
1.1875113892
1.1854300572
1.1851031518
1.1820735991
1.1861965355
1.1869037014
1.1817243330
1.1875790654
1.1861894056
1.1817163419
1.1845286827
1.1836711581
1.1851674631
1.1811705207
1.1864333456
1.1819000767
1.1875992209
1.1869522988
1.1867502633
1.1819447446
1.1863534253
1.1872422263
1.1853576164
1.1812911031
1.1856747815
1.1879899514
1.1807003672
1.1881524453
1.1867199036
1.1877665530
1.1871406634
1.1839272551
1.1815351582
1.1832184230
1.1849937354
1.1890706173
1.1875083529
1.1869017398
1.1817675947
1.1884899878
1.1872102849
1.1879042352
1.1858974468
1.1854348470
1.1889578268
1.1819976126
1.1880199275
1.1874792664
1.1819917580
1.1818663487
1.1887036319
1.1879551993
1.1819439185
1.1806969592
1.1822237096
1.1814159505
1.1864331068
1.1887375850
1.1815321412
1.1809737267
1.1883697759
1.1848558251
1.1851716839
1.1809371015
1.1883502717
1.1823444579
1.1815175068
1.1834334147
1.1878208772
1.1816921093
1.1820585363
1.1882372982
1.1885724988
1.1811303331
1.1888182556
1.1879033209
1.1820578703
1.1888373762
1.1887513968
1.1845559928
1.1872064232
1.1883451651
1.1886064821
1.1891924396
1.1819517923
1.1817945625
1.1881707964
1.1819889276
1.1849991315
1.1817645015
1.1890702652
1.1832179803
1.1880189481
1.1883571659
1.1885410548
1.1884890914
1.1892263451
1.1815574586
1.1886576672
1.1807358091
1.1843899367
1.1815146740
1.1809702198
1.1876242118
1.1888166144
1.1891134650
1.1824740888
1.1883804892
1.1821071576
1.1810892042
1.1883689719
1.1816895111
1.1848595941
1.1810240784
1.1813202355
1.1881076106
1.1882363636
1.1824759951
1.1883793420
1.1822724435
1.1887369797
1.1808160958
1.1802290466
1.1882955267
1.1892692254
1.1817920453
1.1840672960
1.1887507163
1.1814373053
1.1819495850
1.1845598807
1.1804343297
1.1883437165
1.1891392977
1.1815972185
1.1885403810
1.1827456097
1.1838215976
1.1896179880
1.1826221706
1.1808122213
1.1876207934
1.1878741294
1.1810200460
1.1891132224
1.1883786896
1.1880256497
1.1802752062
1.1888161192
1.1843923036
1.1808640169
1.1895488931
1.1886931561
1.1810450716
1.1879456103
1.1828473175
1.1881906316
1.1806549091
1.1835524126
1.1892751179
1.1803070134
1.1795004097
1.1825788006
1.1889949621
1.1840695315
1.1804056302
1.1792408925
1.1814344348
1.1829309655
1.1890218180
1.1895479132
1.1814182830
1.1802710443
1.1808602041
1.1800149087
1.1881898780
1.1880236490
1.1811143460
1.1875694433
1.1826623825
1.1886926126
1.1896726583
1.1838225944
1.1801054592
1.1797951125
1.1878823910
1.1813604393
1.1830023951
1.1827393352
1.1884689567
1.1892751132
1.1793126446
1.1890219669
1.1886955967
1.1887177781
1.1833288739
1.1795700642
1.1892140259
1.1830867864
1.1813971872
1.1822010090
1.1816399108
1.1819452099
1.1828141271
1.1797905557
1.1826710949
1.1805837341
1.1823248640
1.1816649451
1.1814147458
1.1824516555
1.1802456256
1.1804416286
1.1875656233
1.1814359552
1.1809650794
1.1821064354
1.1817861573
1.1824986376
1.1822667236
1.1816067268
1.1824103180
1.1801008266
1.1807227169
1.1811101640
1.1881718817
1.1825563120
1.1828898451
1.1886956942
1.1859489847
1.1823703792
1.1887182339
1.1850436337
1.1831778550
1.1876573042
1.1867620732
1.1873925645
1.1841367268
1.1827371786
1.1863728130
1.1884264478
1.1855014848
1.1836547759
1.1878614103
1.1871091830
1.1874065063
1.1845796241
1.1825688703
1.1821374799
1.1818158519
1.1807779866
1.1821476320
1.1821573734
1.1816613632
1.1826709678
1.1816365213
1.1810396366
1.1823418993
1.1820232489
1.1816658008
1.1805792803
1.1823655352
1.1818606383
1.1821585735
1.1811916058
1.1825118627
1.1821017716
1.1817964875
1.1804369482
1.1821477395
1.1821455221
1.1814314562
1.1826184957
1.1821845576
1.1819148579
1.1813611921
1.1822621923
1.1817828528
1.1820284613
1.1809603414
1.1857670512
1.1821443475
1.1822310514
1.1828136653
1.1837267686
1.1846345767
1.1839447471
1.1871046614
1.1876907475
1.1871647644
1.1829759285
1.1881534075
1.1869216281
1.1855294155
1.1863198571
1.1824461787
1.1881722190
1.1866444749
1.1848608606
1.1853030441
1.1823972223
1.1832631170
1.1841821062
1.1850895463
1.1834404338
1.1870365253
1.1873887255
1.1873390970
1.1825563515
1.1879477006
1.1869349624
1.1859428770
1.1866525819
1.1862180371
1.1844281548
1.1820467538
1.1819364312
1.1815114539
1.1810351415
1.1818762653
1.1821357011
1.1822830739
1.1820245711
1.1820625768
1.1823417418
1.1819410178
1.1819517061
1.1818669961
1.1822234900
1.1818123758
1.1820714280
1.1819542087
1.1813565272
1.1816607993
1.1820589705
1.1822657953
1.1818822561
1.1820200519
1.1823053734
1.1819115107
1.1820020069
1.1818765940
1.1821864002
1.1816692092
1.1824697018
1.1844648650
1.1833410484
1.1876178331
1.1826278577
1.1858819753
1.1853646923
1.1819069531
1.1862100222
1.1866489669
1.1864627500
1.1866940460
1.1819247455
1.1822476428
1.1842378271
1.1835356183
1.1851101537
1.1872029187
1.1828957330
1.1840112624
1.1837907157
1.1874382916
1.1822308502
1.1862045614
1.1849161344
1.1858004115
1.1865846904
1.1864764479
1.1868542489
1.1820767387
1.1846801084
1.1830660100
1.1855144517
1.1869176992
1.1852414277
1.1823698916
1.1817273332
1.1839751935
1.1820811647
1.1819330306
1.1854438179
1.1848478348
1.1817435926
1.1819603725
1.1815893857
1.1820583304
1.1835073261
1.1846857407
1.1852843224
1.1817544816
1.1819954756
1.1820243801
1.1820792292
1.1819369350
1.1820082541
1.1816243511
1.1812950776
1.1831790040
1.1820518742
1.1827237623
1.1842376426
1.1820361502
1.1852054353
1.1822021585
1.1816004090
1.1838241180
1.1820612036
1.1818486971
1.1855900057
1.1848986163
1.1818385635
1.1823347000
1.1816117811
1.1820769054
1.1836616170
1.1845795055
1.1854263042
1.1816563859
1.1820097258
1.1819980896
1.1821001061
1.1820223202
1.1820167186
1.1814887007
1.1814197698
1.1830076513
1.1818939939
1.1831178964
1.1845617697
1.1820876015
1.1810789669
1.1862473960
1.1816454379
1.1849578217
1.1806243423
1.1860199112
1.1838570028
1.1867315393
1.1828176775
1.1829816902
1.1818978858
1.1854577103
1.1818621254
1.1806450142
1.1821532471
1.1862024240
1.1822974272
1.1808095282
1.1857793177
1.1807857625
1.1871164883
1.1816650032
1.1847054387
1.1820331887
1.1831548349
1.1840691475
1.1808976203
1.1829832407
1.1810991870
1.1864007084
1.1817832620
1.1845168278
1.1806463122
1.1860370880
1.1842880127
1.1864598825
1.1828247589
1.1829853402
1.1822042098
1.1857724753
1.1817852982
1.1806274978
1.1825570355
1.1861407485
1.1819245139
1.1807134647
1.1853821158
1.1806067626
1.1869522012
1.1850990562
1.1827108627
1.1836138367
1.1808691621
1.1834197468
1.1818289200
1.1836684082
1.1845779068
1.1855989932
1.1812586533
1.1819604740
1.1819173998
1.1822810846
1.1820080918
1.1854535242
1.1829922028
1.1852984341
1.1854529938
1.1810354226
1.1818788492
1.1842148156
1.1824842246
1.1812951108
1.1825985742
1.1811902628
1.1816054701
1.1820527195
1.1849127037
1.1852856545
1.1837565067
1.1840568565
1.1842138607
1.1833871937
1.1860547111
1.1819465461
1.1817226934
1.1842381899
1.1817136711
1.1812995613
1.1811172927
1.1846671900
1.1845933933
1.1825986128
1.1826508143
1.1847922343
1.1835080450
1.1848482921
1.1842449137
1.1820329139
1.1817273086
1.1827240780
1.1834201648
1.1850985501
1.1819842340
1.1839728741
1.1849555401
1.1840208282
1.1858522011
1.1811437096
1.1816108344
1.1817610197
1.1826367191
1.1820452701
1.1854454086
1.1831542571
1.1853643518
1.1811425923
1.1819489196
1.1843461169
1.1829020494
1.1810213472
1.1810213712
1.1819343541
1.1820969722
1.1849870140
1.1850909414
1.1841751290
1.1839330730
1.1832291438
1.1862036415
1.1818899513
1.1820875679
1.1825043257
1.1838840880
1.1817511314
1.1811902558
1.1848072541
1.1845263878
1.1827716956
1.1824808727
1.1849355765
1.1831182921
1.1845618569
1.1843294905
1.1819954268
1.1817042043
1.1823347551
1.1835840201
1.1819257454
1.1866469833
1.1832630652
1.1841058872
1.1857715350
1.1818093190
1.1826605316
1.1845579851
1.1817841879
1.1816422396
1.1833295119
1.1828028140
1.1807455639
1.1842150719
1.1821220048
1.1829798048
1.1820882623
1.1862800397
1.1811280691
1.1816909271
1.1838028367
1.1853584286
1.1825808989
1.1823289802
1.1835880491
1.1810782792
1.1819944225
1.1807682677
1.1807680415
1.1814970370
1.1819936400
1.1836870561
1.1844206638
1.1809100949
1.1806075245
1.1821143390
1.1826645848
1.1815227361
1.1814276978
1.1828487370
1.1823714885
1.1814305937
1.1831743834
1.1826307530
1.1820219896
1.1864909148
1.1835459154
1.1840036811
1.1857095556
1.1824334830
1.1841274026
1.1822028763
1.1814943285
1.1823826318
1.1806073066
1.1843600388
1.1821282451
1.1829833041
1.1821679988
1.1860184046
1.1814065417
1.1818104295
1.1840277151
1.1849716556
1.1828470112
1.1826471515
1.1834449334
1.1810823367
1.1818965810
1.1806272240
1.1813066592
1.1815822342
1.1816454210
1.1832422197
1.1844538823
1.1808970027
1.1820872522
1.1828225645
1.1821955915
1.1814570358
1.1817113290
1.1825930051
1.1825824218
1.1814446303
1.1824607950
1.1804867833
1.1821190777
1.1816898975
1.1810354360
1.1821109446
1.1829924761
1.1809785461
1.1814570652
1.1804951650
1.1814352340
1.1813804823
1.1823708569
1.1807689124
1.1847640619
1.1813139632
1.1821126645
1.1834439804
1.1814441925
1.1805412416
1.1821128065
1.1830080704
1.1816055611
1.1815873397
1.1849127582
1.1855925008
1.1808851043
1.1814887248
1.1847646084
1.1808810049
1.1816685261
1.1836687515
1.1845801293
1.1806701160
1.1836403414
1.1818289190
1.1822080065
1.1822812614
1.1828947167
1.1808941876
1.1806096366
1.1846473179
1.1812190370
1.1827552083
1.1856526192
1.1840851571
1.1814197908
1.1835909964
1.1845287854
1.1811029673
1.1826956483
1.1835913413
1.1842476957
1.1819241838
1.1804471833
1.1828564019
1.1820772324
1.1820857397
1.1843524408
1.1803796776
1.1821250534
1.1818091951
1.1808092932
1.1820836389
1.1826369156
1.1808941619
1.1820981272
1.1814303927
1.1804075556
1.1815743598
1.1813062572
1.1823654291
1.1806709932
1.1814741166
1.1843185203
1.1814963679
1.1805017825
1.1817575990
1.1822794392
1.1813031872
1.1818382559
1.1852437109
1.1834891976
1.1847930443
1.1809305134
1.1818787638
1.1833391893
1.1805030077
1.1848960633
1.1823333220
1.1819344600
1.1845281672
1.1808093065
1.1806463466
1.1811250469
1.1825724669
1.1839731875
1.1844786938
1.1811264896
1.1834953232
1.1837348864
1.1842453336
1.1820199647
1.1804128141
1.1830233315
1.1822350217
1.1821652399
1.1849559436
1.1815813708