<VTKFile type="UnstructuredGrid" version="0.1">
	<UnstructuredGrid>
		<Piece NumberOfPoints="1862" NumberOfCells="3498">
			<CellData>
				<DataArray type="Int32" Name="type" NumberOfComponents="1" Format="ascii">
0
0
0
0
0
0
0
0
0
0
0
0
0
0
0
0
1
0
0
1
0
0
0
0
0
0
0
0
0
0
0
0
0
1
0
0
0
0
0
0
0
0
0
0
0
0
0
0
0
0
1
0
0
0
0
0
0
0
0
0
0
1
0
0
0
0
0
0
0
0
0
0
0
0
0
0
0
0
0
0
0
0
0
0
0
0
0
0
0
0
0
0
0
0
0
0
0
0
0
0
0
0
0
0
0
0
0
0
0
0
0
0
0
0
0
0
0
0
0
0
0
0
0
1
0
0
0
0
0
0
0
0
0
0
0
0
0
0
0
0
0
0
0
0
0
0
0
0
0
0
0
1
0
1
1
0
0
0
0
0
0
0
0
0
0
0
0
0
1
0
1
0
0
0
0
1
0
0
0
0
0
0
0
0
1
1
0
0
0
0
0
1
0
0
0
0
0
0
0
0
1
0
0
0
0
0
0
0
0
0
0
0
0
0
0
0
0
0
0
0
0
0
0
0
0
0
0
0
0
0
0
0
0
1
0
0
0
0
0
0
0
0
0
0
0
0
0
0
0
0
0
0
0
0
0
0
0
0
0
0
0
0
0
0
0
0
0
0
0
0
0
0
0
0
0
0
0
0
0
0
0
1
0
0
0
0
0
0
0
0
0
0
0
0
0
0
0
0
0
0
0
0
0
0
0
0
0
0
0
0
0
0
0
0
0
0
0
0
0
0
0
0
0
0
0
0
0
0
0
0
0
0
1
0
0
0
0
0
0
0
0
0
0
0
0
0
0
0
0
0
0
0
0
0
0
0
0
0
0
0
0
0
0
0
0
0
0
0
0
0
0
0
0
0
0
0
0
0
0
0
0
0
0
0
0
0
0
0
0
0
1
0
0
0
0
0
0
0
0
0
0
0
0
0
0
0
0
0
0
0
0
0
0
0
0
0
0
0
0
0
0
0
0
0
0
0
0
0
0
0
0
0
0
0
0
0
0
0
0
0
0
0
0
0
0
0
0
0
0
0
0
0
0
0
0
0
0
0
0
0
0
0
0
0
0
0
0
0
0
0
0
0
0
0
0
0
0
0
0
0
0
0
0
0
0
0
0
0
0
0
0
0
0
0
0
0
0
0
0
0
0
0
0
0
0
0
0
0
0
0
0
0
0
0
0
0
0
0
0
0
0
0
0
1
0
0
0
0
0
0
0
0
0
0
0
0
0
0
0
0
0
0
0
1
0
0
0
0
0
0
0
0
0
0
0
0
0
0
0
0
0
0
0
0
0
0
0
0
0
0
0
0
0
0
0
0
0
0
0
0
0
0
0
0
0
0
0
0
0
0
0
0
0
0
0
0
0
1
0
0
0
0
0
0
0
0
0
0
0
0
0
0
0
0
0
0
0
0
0
0
0
1
0
0
0
0
0
0
0
0
0
0
0
0
0
0
0
0
0
0
0
1
0
0
0
1
0
0
0
0
0
0
0
0
0
0
0
0
0
0
0
0
0
0
0
0
0
0
0
0
0
1
0
0
0
0
0
0
0
1
0
0
0
0
0
0
0
0
0
0
0
0
0
0
0
0
0
0
0
0
0
0
0
0
0
0
1
0
0
0
0
0
0
0
1
0
0
0
0
0
0
1
0
0
0
0
0
0
0
0
0
0
0
0
0
0
0
0
0
0
0
0
0
0
0
0
0
0
0
0
0
0
0
0
0
0
0
0
0
0
1
0
0
0
0
0
1
0
0
0
0
0
0
0
1
0
0
0
0
0
0
0
0
0
0
0
0
0
1
0
0
0
0
0
0
0
0
0
0
0
0
0
0
0
0
0
0
0
0
0
0
0
0
0
0
0
0
0
0
0
0
0
0
0
0
0
0
0
0
0
0
0
0
0
0
0
0
0
0
0
0
0
1
0
0
0
0
0
0
0
0
0
0
0
0
0
0
0
0
0
0
0
1
0
0
0
0
0
0
0
0
0
1
0
0
0
0
0
0
0
0
0
0
0
0
0
0
0
0
0
0
0
0
0
0
0
0
0
0
0
0
0
1
0
1
0
0
0
0
0
0
0
0
0
0
0
0
0
0
0
0
0
0
0
0
0
0
0
0
0
0
0
1
0
0
0
1
0
0
0
0
0
0
0
0
0
0
0
0
0
0
0
0
0
0
0
0
0
0
0
0
0
0
0
0
1
0
0
0
0
0
0
0
0
0
0
0
0
0
0
0
0
0
0
0
0
0
0
0
0
0
1
0
0
0
0
0
0
0
0
0
0
0
0
0
0
0
0
0
0
0
0
0
0
0
1
0
0
0
0
0
0
1
0
0
0
0
0
0
0
0
0
0
0
1
0
0
0
0
0
0
0
0
0
0
0
0
0
0
0
0
0
0
0
0
1
0
0
0
0
0
0
0
0
0
0
0
1
0
0
0
0
0
0
0
0
0
0
0
0
0
0
0
0
0
0
0
0
0
1
0
0
0
0
0
0
0
0
0
1
1
0
1
0
1
0
0
0
0
0
0
0
0
0
0
0
1
0
0
0
0
0
1
1
0
0
0
0
0
0
1
0
0
0
0
0
1
1
1
0
0
0
0
0
0
0
0
0
0
0
0
1
1
0
0
1
0
0
0
0
0
1
0
0
0
1
0
1
0
0
0
0
0
0
0
1
0
0
0
0
0
0
0
1
0
0
1
0
0
0
0
0
0
0
0
0
0
0
0
0
0
0
1
0
0
0
0
0
0
0
0
0
0
0
0
0
0
0
0
0
0
0
0
0
0
0
0
0
0
0
0
0
0
0
0
0
0
0
0
1
0
0
0
0
0
0
1
0
0
0
1
0
0
0
0
0
0
0
0
0
0
0
1
0
0
0
0
0
0
0
0
0
0
0
0
0
0
0
0
0
0
0
0
0
0
0
0
0
0
0
0
0
0
0
0
0
0
0
0
0
0
0
0
1
1
0
0
0
0
0
0
0
0
0
0
0
0
0
1
0
0
0
0
0
0
0
0
0
0
0
0
0
0
0
0
0
0
0
0
0
0
0
0
0
0
0
0
0
0
0
0
0
0
0
0
0
0
0
0
0
0
0
0
0
0
0
0
0
0
0
0
0
0
0
0
0
0
0
0
0
0
0
0
0
0
0
0
0
0
0
0
1
1
0
0
0
0
0
0
0
0
1
0
0
0
0
0
0
0
0
0
0
0
0
0
0
0
0
0
0
0
0
0
0
0
1
0
0
0
0
0
0
0
0
0
0
0
0
0
0
0
0
1
0
0
0
0
0
0
0
0
0
0
0
0
0
0
0
0
0
0
0
0
0
0
0
0
0
0
0
0
0
0
0
0
0
0
0
0
0
0
0
0
0
0
0
0
0
0
0
0
0
0
0
0
0
0
0
0
0
0
0
0
0
0
0
0
0
0
0
0
0
0
0
0
0
0
0
0
0
0
0
0
0
0
0
0
0
0
0
0
0
0
1
1
0
0
0
0
0
1
0
0
0
0
0
0
0
0
0
0
0
0
1
0
0
0
0
0
0
0
0
0
0
0
0
0
0
0
0
0
0
0
0
0
0
0
0
0
0
0
0
0
0
0
0
0
0
0
0
0
0
0
0
0
0
0
0
0
0
0
0
0
0
0
0
0
1
0
1
0
0
0
0
0
0
0
0
0
0
0
0
0
0
0
0
0
0
1
0
0
0
0
0
0
0
0
0
0
0
0
0
0
0
0
0
0
0
0
0
0
0
0
0
0
0
0
0
0
0
0
0
0
0
0
0
0
0
0
0
0
0
0
0
0
0
0
0
0
0
0
0
0
0
0
0
0
0
0
0
0
0
0
0
0
0
0
0
0
1
0
0
0
0
0
0
0
0
0
0
1
0
0
0
0
0
0
0
0
0
0
0
0
0
0
0
0
0
0
0
0
0
0
0
0
0
0
0
0
0
0
0
0
0
0
0
0
0
1
0
0
0
0
0
0
0
0
0
0
0
0
0
0
0
0
0
0
0
0
0
0
0
0
0
0
0
0
0
0
0
0
0
0
0
0
0
0
0
0
0
0
0
0
0
0
0
0
0
0
0
0
0
0
0
0
0
0
0
0
0
0
0
0
0
0
0
0
0
0
0
0
0
0
0
0
0
0
0
0
0
1
0
0
0
0
0
0
0
0
0
0
0
0
0
0
0
0
0
0
0
0
0
0
0
0
0
0
0
0
0
0
0
0
0
0
0
0
0
0
0
0
0
0
0
0
0
0
0
0
0
0
0
0
0
0
0
0
0
0
0
0
0
0
0
0
0
0
0
0
0
0
0
0
0
0
0
0
0
0
0
0
0
0
0
0
0
0
0
0
0
0
0
0
0
0
0
0
0
0
0
0
0
0
0
0
0
0
0
0
0
0
0
0
0
0
0
0
0
0
0
0
0
0
0
1
0
0
0
0
0
0
0
0
0
0
0
0
0
0
0
0
0
0
0
0
0
0
0
0
0
0
0
0
0
0
0
0
0
0
0
0
0
0
0
0
0
0
0
0
0
0
0
0
0
0
0
0
0
0
0
0
0
0
0
0
0
0
0
0
0
0
0
0
0
0
0
0
0
0
0
0
0
0
0
0
0
1
0
0
0
0
0
0
0
1
0
0
0
0
0
0
0
0
0
0
0
0
0
0
0
0
0
0
0
0
0
0
0
0
0
0
0
0
0
0
0
0
0
0
0
0
0
1
0
0
0
0
0
0
0
0
0
0
0
0
0
0
0
0
0
0
0
0
0
1
0
0
0
0
0
0
0
0
0
0
0
0
1
1
0
0
0
0
0
0
0
0
0
0
0
0
0
0
0
1
1
0
1
0
0
0
0
0
0
0
0
0
1
0
0
0
0
0
0
1
0
0
0
0
0
0
0
0
0
0
1
0
0
0
0
1
0
1
0
0
0
0
0
0
0
1
0
0
0
1
0
0
0
1
0
1
1
0
0
1
1
0
0
0
1
0
0
0
1
0
0
0
0
0
0
0
0
0
1
0
0
0
0
0
0
1
0
0
0
0
0
0
0
0
0
0
0
0
0
0
0
0
0
0
0
0
0
0
0
0
0
0
0
1
0
0
1
0
0
0
0
0
0
0
0
0
0
0
0
0
0
0
0
0
0
1
0
0
1
0
0
0
0
0
0
0
0
0
0
0
1
0
0
1
0
0
0
0
0
0
0
0
0
0
0
1
1
0
0
0
0
0
0
0
0
0
0
0
0
1
0
0
0
0
0
0
0
0
0
0
0
0
0
0
0
0
0
1
0
0
0
0
0
0
0
0
0
0
0
0
0
0
0
0
0
1
0
0
0
0
0
0
0
0
0
0
0
0
0
0
0
0
0
0
0
0
0
0
0
0
0
0
0
0
0
0
0
0
0
0
0
0
0
0
0
0
1
0
0
0
0
0
0
0
0
0
0
0
0
0
0
0
0
0
0
0
0
0
0
0
0
0
0
0
0
0
0
0
0
0
0
0
0
0
0
0
0
0
0
0
0
0
1
0
0
0
0
0
0
0
0
0
0
0
0
0
0
0
0
0
0
0
0
0
0
0
0
0
0
0
0
0
0
0
0
0
0
0
0
0
0
0
0
0
0
0
0
0
0
0
1
0
0
0
0
0
0
0
0
0
0
1
0
0
0
0
0
0
0
0
0
0
0
0
0
0
0
1
0
0
1
0
0
0
0
0
0
0
0
0
0
0
0
0
0
0
0
0
0
0
0
0
0
0
1
0
0
0
0
0
0
0
0
0
0
0
0
0
0
0
0
0
0
0
0
0
0
0
0
0
0
0
0
0
0
0
0
0
0
0
1
0
0
0
0
0
0
0
0
0
0
0
0
0
0
0
0
0
0
0
0
0
0
0
0
0
0
0
0
0
0
0
0
0
0
0
0
0
0
0
0
0
0
0
0
0
0
0
0
0
0
0
0
0
0
0
0
0
0
0
0
0
0
0
0
0
0
0
0
0
0
0
0
0
0
0
0
1
0
0
0
0
0
0
0
0
0
0
0
0
0
0
0
0
0
0
0
0
0
0
0
0
0
0
0
0
0
0
0
0
0
0
0
0
0
0
0
1
0
0
0
0
0
0
0
0
0
0
0
0
1
1
0
0
0
0
0
0
0
0
0
0
0
0
0
0
0
0
0
0
0
0
0
0
0
0
0
0
0
0
0
0
0
0
0
0
0
0
0
0
0
0
0
0
0
0
0
0
0
0
0
0
0
0
0
0
0
0
0
0
0
0
0
0
0
0
0
0
0
0
0
0
0
0
0
0
0
0
0
0
0
0
0
0
0
0
0
0
0
0
0
0
0
0
0
0
0
0
0
0
0
0
0
1
0
1
0
0
0
0
0
0
0
1
1
1
1
0
0
0
0
0
0
0
0
0
0
0
0
0
0
0
0
0
0
0
0
0
0
0
0
0
0
0
0
1
1
0
0
0
0
0
0
0
0
0
0
0
0
0
0
0
0
0
0
1
0
0
0
0
0
0
0
1
1
0
1
1
0
0
1
0
0
0
0
0
0
0
1
0
1
0
0
0
0
0
0
0
0
0
0
0
0
0
0
0
0
0
0
0
0
0
0
0
0
0
0
0
1
1
0
0
0
1
1
0
0
0
0
1
0
0
1
0
1
0
0
0
0
0
1
0
0
0
1
0
0
0
0
0
0
0
0
0
0
0
0
0
0
0
0
0
0
0
0
0
0
0
0
0
0
0
1
0
0
0
0
0
0
1
0
0
0
0
0
0
0
0
0
0
0
0
0
0
0
0
0
0
0
0
0
0
0
0
0
0
0
0
0
1
0
1
0
0
0
0
0
0
0
1
0
0
0
0
0
0
0
0
0
0
0
1
0
0
0
0
0
0
0
0
0
1
0
0
0
0
0
0
0
1
0
0
0
0
0
0
0
1
0
0
0
0
0
0
0
0
0
0
0
0
0
0
0
0
0
0
0
1
0
1
0
0
0
0
0
1
0
0
0
0
0
0
0
0
0
0
0
0
0
0
0
0
0
0
0
0
0
0
0
0
0
1
0
1
0
0
0
0
0
0
0
0
0
1
0
0
0
0
0
1
0
0
0
0
0
0
0
0
0
0
0
0
0
0
0
1
0
0
0
0
0
0
0
0
1
0
0
0
0
0
0
0
0
0
0
0
0
0
0
0
0
0
0
0
0
0
0
0
0
0
0
0
0
0
0
1
0
0
0
0
0
0
0
0
0
0
0
0
0
0
0
0
1
0
0
0
0
0
0
0
0
1
0
0
0
0
0
0
0
0
0
1
0
0
0
0
0
1
0
0
0
0
0
0
0
0
0
0
0
0
0
0
0
0
0
0
0
1
0
0
0
0
0
0
1
0
0
0
0
0
0
0
0
1
0
0
0
0
0
0
0
0
0
0
0
0
0
0
1
0
0
1
0
0
0
1
0
0
0
0
0
0
0
0
0
0
0
0
0
0
0
0
1
0
0
0
0
0
0
0
0
0
0
1
0
1
0
0
0
0
0
0
1
0
0
0
0
0
0
0
0
0
0
0
0
0
0
0
0
0
0
0
0
0
0
0
0
0
0
0
1
1
0
0
0
0
0
0
1
0
0
0
0
0
0
0
0
0
0
0
0
0
1
0
0
0
0
0
0
0
1
0
0
0
0
0
0
0
0
0
0
0
0
0
0
0
0
0
0
0
0
0
0
0
0
0
0
0
1
0
0
0
0
0
0
0
0
0
0
1
0
0
1
0
0
0
0
0
0
0
0
0
0
0
0
0
0
0
0
0
0
0
0
0
0
0
0
0
0
0
0
0
1
0
0
0
0
0
0
0
1
0
0
0
0
0
0
0
1
0
0
0
0
1
0
0
0
0
0
0
0
0
0
0
0
1
0
1
0
0
0
1
0
				</DataArray>
				<DataArray type="Float64" Name="h" NumberOfComponents="1" Format="ascii">
1.2129108679
1.2129216008
1.2110231463
1.2123581792
1.2108363254
1.2115851268
1.2117117019
1.2132983213
1.2125318013
1.2146404303
1.2130093927
1.2115964618
1.2134149160
1.2135376593
1.2133918608
1.2146015994
1.2117829607
1.2144152321
1.2129468454
1.2127885487
1.2105433876
1.2131719922
1.2115137794
1.2104438729
1.2123451907
1.2156584611
1.2118142134
1.2079102125
1.2107462083
1.2139909862
1.2133371073
1.2114428663
1.2133284332
1.2111261809
1.2090990858
1.2099892274
1.2097757283
1.2109171416
1.2075142378
1.2102015388
1.2106057254
1.2082664211
1.2117212086
1.2101050596
1.2098630659
1.2086694631
1.2108317821
1.2091195215
1.2044241706
1.2039274595
1.2103817132
1.2094589405
1.2100702382
1.2064357168
1.2089425384
1.2110108246
1.2087971022
1.2085103808
1.2078745963
1.2073248077
1.2082618536
1.2086204095
1.2050130662
1.2094606766
1.2092314253
1.2065700998
1.2035191078
1.2045616418
1.2082924417
1.2087203771
1.2078545394
1.2091788722
1.2102089367
1.2061293438
1.2070386506
1.2055681666
1.2083227766
1.2076335820
1.2085794172
1.2065544615
1.2080681050
1.2061338309
1.2042933378
1.2041718495
1.2071147464
1.2051719928
1.2080752049
1.2037315387
1.2068652646
1.2036795988
1.2070628062
1.2057051757
1.2075886043
1.2031145223
1.2049720247
1.2054093779
1.2037221646
1.2070828844
1.2066951461
1.2076770276
1.2043590638
1.2085348186
1.2049523300
1.2089304128
1.2160267375
1.2031905786
1.2037701382
1.2043884180
1.2073776421
1.2053047795
1.2031812871
1.2037417492
1.2071463251
1.2060832954
1.2050669340
1.2074250599
1.2053848631
1.2154672386
1.2062802497
1.2053217711
1.2156945204
1.2041134505
1.2040596849
1.2160159119
1.2061812594
1.2050370733
1.2055333419
1.2167211042
1.2081293886
1.2068852147
1.2073341935
1.2040789241
1.2058273474
1.2087969795
1.2150835449
1.2068303304
1.2165340609
1.2081901450
1.2086062923
1.2140538024
1.2174296077
1.2154062902
1.2073816755
1.2126759802
1.2042797100
1.2075901608
1.2153268581
1.2070507599
1.2160966974
1.2075637972
1.2168911289
1.2088410868
1.2082451640
1.2087658629
1.2085501573
1.2073354120
1.2089958072
1.2167647083
1.2080173774
1.2179056518
1.2134203622
1.2075889536
1.2159055946
1.2174310276
1.2168688345
1.2063260874
1.2111068083
1.2148539558
1.2167361055
1.2073821452
1.2090203483
1.2174691803
1.2088512730
1.2171100320
1.2102528251
1.2095730264
1.2118936316
1.2055863422
1.2093166171
1.2177002614
1.2068734087
1.2085702607
1.2181660428
1.2031538189
1.2179119654
1.2173948824
1.2094804990
1.2087161384
1.2169441753
1.2171722349
1.2068961247
1.2093189415
1.2181433704
1.2078384898
1.2094721395
1.2057054110
1.2179419264
1.2052415804
1.2061845424
1.2069272458
1.2171638303
1.2025941139
1.2173402889
1.2082323968
1.2036159033
1.2190779522
1.2149714848
1.2171485321
1.2045423589
1.2120049255
1.2069026656
1.2177276792
1.2184848889
1.2194810269
1.2161682107
1.2051730846
1.2135488666
1.2186567424
1.2086352876
1.2186985668
1.2029592894
1.2024074531
1.2103475520
1.2015027675
1.2016901127
1.2055748472
1.2036260111
1.2013592991
1.2020507542
1.2029932418
1.2069872196
1.2018984173
1.2014888520
1.2061917941
1.2049330682
1.2013184743
1.2059377860
1.2144356231
1.2189191654
1.2112419107
1.2059155063
1.2169094839
1.2192741190
1.2111429191
1.2167155421
1.2143184752
1.2191407370
1.2076781919
1.2157906293
1.2186793468
1.2128997779
1.2077101449
1.2185443303
1.2042255832
1.2041489682
1.2197839091
1.2127828589
1.2156573796
1.2194768928
1.2013574825
1.2094975431
1.2005615849
1.2001483808
1.2002735294
1.2011666803
1.2041513878
1.2040638780
1.2018714878
1.2054364316
1.2010393142
1.2021718994
1.2094256152
1.2023089404
1.2008764977
1.2010409786
1.2009853182
1.2002904763
1.2001174332
1.2005918410
1.2014432912
1.2028921112
1.2046741626
1.2047938777
1.2034338648
1.2015765524
1.2017889235
1.2009937832
1.2137680556
1.2192277064
1.2192761165
1.2136750962
1.2049445694
1.2165279366
1.2164247436
1.2103832101
1.2049118180
1.2103088662
1.2152495928
1.2185350715
1.2197798481
1.2198541038
1.2151564637
1.2067241803
1.2031412121
1.2032114180
1.2121299804
1.2067334483
1.2120399685
1.2184600270
1.1995011688
1.1997045914
1.1989741802
1.2038781719
1.2008295460
1.2007011004
1.2000479798
1.2085701853
1.2009092602
1.2025090470
1.2085232603
1.1990209944
1.1999997383
1.1996689614
1.2026505433
1.1991648775
1.1997926236
1.1989201579
1.2032673669
1.1997851559
1.2004329555
1.2014527836
1.2018987275
1.2031077403
1.1999852500
1.1992816370
1.2003416925
1.2001519979
1.2129167611
1.1979829266
1.2094436742
1.2039245891
1.2093991258
1.2191356810
1.2039595543
1.2159762168
1.2129758013
1.2159342179
1.2190969118
1.1963926896
1.1962912804
1.2021802475
1.1953369885
1.2145119320
1.2182370659
1.1961659127
1.2112533991
1.1951428681
1.2057387852
1.2111959256
1.1948189519
1.1956758675
1.1964656616
1.2198502407
1.2057461142
1.2022367733
1.2145642661
1.1975933666
1.1962837482
1.1955238069
1.2197246915
1.1945232585
1.1948771880
1.2182330391
1.2009530597
1.1987541662
1.1978129156
1.2011309848
1.2166534581
1.1992501041
1.1985288637
1.1998613749
1.1995069376
1.2023022732
1.2075913066
1.1983285327
1.2075698090
1.1989118241
1.1985328797
1.1978746144
1.2061032047
1.2015349793
1.1990731120
1.1985653293
1.1987441270
1.2003685261
1.1980051741
1.2164250285
1.2110572575
1.2093430281
1.2015452209
1.1981272855
1.2000062963
1.2030264962
1.1990801965
1.2001128805
1.2017183737
1.1987528906
1.1993162545
1.1986516147
1.2045476872
1.1977692433
1.1968818398
1.1965575829
1.1956644184
1.2120465150
1.1968373434
1.1972458002
1.2084323841
1.1954488157
1.1970464232
1.1970845700
1.1984017728
1.2152764195
1.1959988271
1.1960304561
1.1963209331
1.1987006208
1.2188732929
1.1946205279
1.2030137861
1.1958347586
1.1954067362
1.1944271510
1.1952130869
1.1947608236
1.1953589918
1.1930369908
1.1968570877
1.1981886186
1.1967059599
1.1951675670
1.1932499935
1.2137320130
1.1930951485
1.1954110495
1.2102647569
1.1966570563
1.1941480659
1.1963722993
1.1936974133
1.1936494243
1.1992183883
1.2197210996
1.1975757751
1.2047754554
1.1984012821
1.1942249053
1.1941612935
1.1941293802
1.1939363375
1.2178499041
1.2013291662
1.2110729655
1.2007409104
1.2065907073
1.1975210852
1.1964146217
1.1979219620
1.2001794519
1.2144643450
1.1996322315
1.2074320346
1.1981431691
1.2038417657
1.1989893527
1.1974246927
1.1930049383
1.2044326598
1.2184374683
1.2160593674
1.2145114227
1.2005105397
1.2128220673
1.2001858691
1.1917566070
1.1924829674
1.1985908555
1.2128087310
1.1973994317
1.2095614110
1.1945558042
1.1983889370
1.1925762266
1.2172880519
1.2164239511
1.2076969088
1.2092623412
1.1920381732
1.1977769819
1.2131527913
1.1921263085
1.1922687573
1.2059384128
1.2093426925
1.2015449954
1.2056154407
1.1975994015
1.2194101608
1.1989874229
1.1936606405
1.2128092996
1.2021343174
1.1928126933
1.2074320535
1.1964548955
1.2184340949
1.1930078435
1.1958814870
1.2182180456
1.2074099908
1.2021342357
1.1945800635
1.1947991758
1.1971310932
1.2110536871
1.1929134884
1.2131091921
1.1936298838
1.1976177360
1.2021149080
1.1936126382
1.2110724716
1.1938192338
1.2144015772
1.2144621343
1.2006430332
1.2172846695
1.2092622452
1.2194068970
1.1976175432
1.2005102815
1.2018800507
1.2066736851
1.2191408131
1.2043057600
1.2092446469
1.2153859752
1.2038417532
1.2031052041
1.2079441819
1.1943165468
1.2054857024
1.2127888968
1.1982148740
1.2171256025
1.1970717500
1.2005017044
1.2094429136
1.1938871710
1.1944997044
1.2038171394
1.2113910175
1.1941619237
1.2128208222
1.1994134836
1.1968570649
1.2056154487
1.1964150144
1.1930156540
1.1992266146
1.2055897777
1.1938427866
1.1923226758
1.1932601221
1.1970448813
1.2175185014
1.1982301690
1.1953897897
1.1928126041
1.2029497207
1.2081501908
1.1963743977
1.1921262201
1.2113564769
1.1944348193
1.2133880167
1.1981906053
1.1965588054
1.1966561627
1.2040683378
1.1987058149
1.2005738504
1.2075006088
1.1992736569
1.2039816929
1.1975741819
1.2013445344
1.2185497944
1.1925668440
1.2029709112
1.1988637652
1.2046303304
1.1927162855
1.2099431653
1.1963225780
1.2044588974
1.2023318645
1.1919033496
1.1972448540
1.2044833303
1.2031802561
1.2149355721
1.1918565573
1.2044009886
1.1953897091
1.2117069761
1.1928934539
1.2143998300
1.2055895563
1.2021147517
1.2110530749
1.1947315738
1.1960070700
1.2163161291
1.2182152758
1.2063700910
1.1996819956
1.1910106521
1.2171229050
1.2030415368
1.2023317871
1.2012000579
1.2033639817
1.2005014161
1.2074097049
1.2038169755
1.2127878147
1.1912802729
1.1910416275
1.1918784843
1.1936003715
1.2191380110
1.2029462610
1.2013725722
1.2022015552
1.1929137351
1.1919204726
1.1982148243
1.2038926756
1.1920472179
1.1958069456
1.2071437612
1.2170220922
1.2123633474
1.1923902286
1.2038005051
1.2006659896
1.2092442681
1.1915976203
1.2088692935
1.2182319676
1.2140522744
1.1923194692
1.1910871863
1.1911701526
1.1920446312
1.1976730904
1.2054513307
1.2156218415
1.2106183133
1.1917063680
1.1916767285
1.2006428500
1.2033152918
1.2015422871
1.2023202532
1.1911521502
1.2011688027
1.2023128569
1.1909507520
1.1907982975
1.2036275677
1.2040680468
1.1910123763
1.2041821775
1.2037398174
1.1986842099
1.1906345937
1.1909298286
1.1905520817
1.2048714022
1.2055675236
1.1975184717
1.2012955361
1.2022294923
1.1908285575
1.1906416317
1.1915684348
1.1911366963
1.1919872632
1.1905714176
1.1904994368
1.2001910397
1.1910417239
1.1913198752
1.2044847551
1.1906566631
1.2054855182
1.1908145202
1.2089581220
1.2074134938
1.1907518119
1.2044018724
1.1907164971
1.1912555540
1.2113910214
1.1913857465
1.2115565467
1.2128502864
1.1914971503
1.1919685364
1.2158781890
1.2120046054
1.2118318008
1.2118405706
1.2120146823
1.2121988310
1.2115917694
1.2130044616
1.2129490722
1.2112235071
1.2115791326
1.2108419540
1.2112311564
1.2125377212
1.2133850623
1.2117053198
1.2140958799
1.2129554930
1.2122042315
1.2140868060
1.2144113113
1.2123637129
1.2110283342
1.2129359408
1.2139878882
1.2144066164
1.2114218177
1.2133040912
1.2156567571
1.2123403692
1.2146437771
1.2138685492
1.2134240893
1.2108714707
1.2140079148
1.2122720349
1.2140998189
1.2133341654
1.2140936019
1.2111219055
1.2133192476
1.2114302332
1.2125747229
1.2101973738
1.2078689886
1.2117870266
1.2146064665
1.2117082915
1.2075032298
1.2114260764
1.2144113012
1.2105978018
1.2135412077
1.2127919184
1.2108759851
1.2115271671
1.2086146761
1.2131815924
1.2100032883
1.2138773966
1.2105474382
1.2122858641
1.2124598531
1.2073488067
1.2091157289
1.2140139817
1.2098585209
1.2103772740
1.2108170880
1.2079198678
1.2104483210
1.2107560906
1.2087887279
1.2085595240
1.2118265622
1.2092327459
1.2150689925
1.2078798786
1.2084904591
1.2092624503
1.2125845134
1.2100589431
1.2086175672
1.2038486684
1.2050987061
1.2124725248
1.2100073772
1.2095045814
1.2073564983
1.2099951593
1.2092189713
1.2109307257
1.2084552820
1.2091029473
1.2050155570
1.2045606679
1.2076100226
1.2097796554
1.2094554512
1.2084928368
1.2083659084
1.2079808429
1.2101174531
1.2061285105
1.2070385735
1.2091757595
1.2101969086
1.2084740785
1.2086404398
1.2092520462
1.2092363545
1.2085803144
1.2092666414
1.2082720123
1.2083192926
1.2078513455
1.2065078340
1.2070370691
1.2085710135
1.2101221035
1.2082879646
1.2096593960
1.2150721291
1.2087151945
1.2095083748
1.2084578362
1.2062797939
1.2076147902
1.2047000262
1.2082762318
1.2034175345
1.2044207001
1.2094670627
1.2050987921
1.2086801539
1.2061291953
1.2041685376
1.2071496732
1.2038470252
1.2039277945
1.2082667698
1.2086258593
1.2101349851
1.2081427634
1.2065081999
1.2078770696
1.2078535653
1.2070394989
1.2062231634
1.2093898286
1.2083686487
1.2096637760
1.2079915119
1.2089461846
1.2080381846
1.2084783707
1.2085861590
1.2110218793
1.2064518112
1.2073243063
1.2086506704
1.2064355232
1.2079831754
1.2073258141
1.2056966095
1.2085145680
1.2092637766
1.2075850250
1.2047007777
1.2089256222
1.2066851089
1.2071514641
1.2077786571
1.2082776712
1.2085289741
1.2031260133
1.2076821280
1.2043931480
1.2065777613
1.2043660023
1.2035227474
1.2089112812
1.2070730764
1.2085164546
1.2054010890
1.2074390948
1.2034206210
1.2076733273
1.2031839869
1.2062885940
1.2050260522
1.2064537466
1.2073753400
1.2037477062
1.2081477213
1.2073263734
1.2071432444
1.2079927339
1.2055753761
1.2026257271
1.2078551336
1.2076370521
1.2094000209
1.2072881414
1.2062300884
1.2031823450
1.2052993793
1.2080416737
1.2076854237
1.2050214152
1.2060798842
1.2085220657
1.2051800138
1.2041077900
1.2063550507
1.2089156462
1.2160087741
1.2074397265
1.2043966390
1.2071231891
1.2065639555
1.2080797282
1.2042859114
1.2080729264
1.2053826006
1.2085834039
1.2031321740
1.2156949131
1.2037374102
1.2077870092
1.2072913095
1.2040716656
1.2027089573
1.2160890275
1.2050415647
1.2065930044
1.2066151889
1.2068663837
1.2049785637
1.2031111246
1.2061584480
1.2036722050
1.2070645636
1.2055985307
1.2087041927
1.2061799433
1.2055327082
1.2026284283
1.2068837242
1.2049567980
1.2056496546
1.2022508004
1.2060810981
1.2160087265
1.2063544949
1.2055773967
1.2150828693
1.2068293123
1.2058290247
1.2160262633
1.2037288194
1.2042719663
1.2022774016
1.2154069894
1.2056607132
1.2160884937
1.2061579368
1.2060827122
1.2043831611
1.2158439045
1.2087090463
1.2066164909
1.2050691322
1.2160983011
1.2027133497
1.2073786859
1.2163098213
1.2074273725
1.2065946638
1.2075870583
1.2055963405
1.2037771645
1.2158367249
1.2046697564
1.2020334178
1.2088861970
1.2056474492
1.2055752413
1.2172286940
1.2081787523
1.2049762258
1.2081674552
1.2053205678
1.2022583432
1.2088356171
1.2154677559
1.2080708436
1.2062799266
1.2146791318
1.2168959673
1.2082403430
1.2085445322
1.2158440847
1.2163073422
1.2148519724
1.2168714551
1.2056612795
1.2079474834
1.2158358741
1.2169410758
1.2069060971
1.2025956269
1.2022852363
1.2160139303
1.2081335554
1.2134151142
1.2163605768
1.2040658820
1.2073367806
1.2143568041
1.2159070233
1.2081779994
1.2075848734
1.2167184340
1.2080122693
1.2081719706
1.2165323475
1.2088020852
1.2081769583
1.2021568319
1.2049713208
1.2076374308
1.2081943304
1.2088453843
1.2139164439
1.2169869286
1.2086116614
1.2146804301
1.2020427519
1.2172232199
1.2088916114
1.2046758230
1.2080751735
1.2073783980
1.2087027773
1.2081832031
1.2090146697
1.2171134122
1.2075688332
1.2181700506
1.2027317369
1.2163588916
1.2169379490
1.2055894986
1.2082213598
1.2085886137
1.2126840995
1.2070541334
1.2153282256
1.2177044642
1.2069101174
1.2143579825
1.2026043083
1.2182503776
1.2174263429
1.2068719352
1.2081825098
1.2118864721
1.2086664462
1.2140591247
1.2079523538
1.2176357695
1.2169477185
1.2073381906
1.2090015363
1.2169826191
1.2023823354
1.2081817249
1.2150289868
1.2139181203
1.2021655396
1.2179153833
1.2076405769
1.2087715642
1.2167615283
1.2087079251
1.2094722663
1.2028593623
1.2094660721
1.2111158453
1.2176320414
1.2055871769
1.2057055285
1.2182461673
1.2085942723
1.2086716667
1.2062817867
1.2177002488
1.2082264515
1.2027405928
1.2174500355
1.2093129724
1.2087371477
1.2174269146
1.2063262478
1.2078314254
1.2063473668
1.2179017970
1.2025882177
1.2088066019
1.2174656258
1.2173443647
1.2102600114
1.2082262025
1.2023900353
1.2167329786
1.2171678874
1.2150288109
1.2061784234
1.2083013956
1.2093225710
1.2177634628
1.2176964477
1.2174466020
1.2177315647
1.2063515037
1.2062831052
1.2184626399
1.2049453706
1.2085768593
1.2087424045
1.2095789766
1.2028668819
1.2181313951
1.2178179799
1.2055878537
1.2184895647
1.2045371020
1.2069018445
1.2069804801
1.2088128171
1.2171681875
1.2083077740
1.2075772355
1.2076024285
1.2031591902
1.2173907572
1.2087220574
1.2029558202
1.2191452800
1.2143175112
1.2178041315
1.2167201585
1.2052463581
1.2178140163
1.2034852931
1.2183808246
1.2111383554
1.2179926224
1.2177587567
1.2059343942
1.2181393456
1.2185982872
1.2049419332
1.2179369338
1.2192334506
1.2156593914
1.2177082812
1.2042235062
1.2127795040
1.2185494318
1.2076739550
1.2181274285
1.2189231392
1.2184581705
1.2062480751
1.2025653130
1.2036191063
1.2075831611
1.2017885806
1.2094209373
1.2076091492
1.2010305537
1.2014401070
1.2047889016
1.2029002677
1.2042825103
1.2009849829
1.2018708283
1.2023145060
1.2069343867
1.2013508550
1.2011607878
1.2054280192
1.2035213107
1.2041525116
1.2008655810
1.2069070211
1.2136750372
1.2178746478
1.2186943626
1.2103061586
1.2049430361
1.2179871409
1.2034873962
1.2177987808
1.2188562639
1.2024461394
1.2164292411
1.2192322692
1.2183767786
1.2120101584
1.2171436201
1.2149723237
1.2190734426
1.2086402292
1.2151587819
1.2184652010
1.2185943330
1.2120381245
1.2067217886
1.2186517022
1.2051766379
1.2032109885
1.2175159819
1.2196408248
1.2135525567
1.2177027785
1.2161659820
1.2192293869
1.2019013614
1.2085204525
1.2015512595
1.2003415944
1.1997864401
1.1997746200
1.2014970883
1.2035149424
1.2049349929
1.2032631399
1.2020528452
1.2061992278
1.2027989049
1.2004298666
1.2014587837
1.2103529273
1.2062540799
1.2029850636
1.2013293223
1.2015112911
1.2008310694
1.1999969845
1.1996952047
1.2000397450
1.2016953809
1.2036176096
1.2042784415
1.2038690642
1.2025658833
1.2055819205
1.2026523027
1.2009118322
1.2020461626
1.2024036981
1.2013697569
1.2129171134
1.2176131785
1.2192695144
1.2188519015
1.2191400455
1.2144354643
1.2059180824
1.2014518956
1.2159381933
1.2024464198
1.2169046430
1.2093977335
1.2039591385
1.2112447056
1.2178691535
1.2145140839
1.2182419676
1.2196366688
1.2198166462
1.2157879939
1.2077131075
1.2022370952
1.2171760926
1.2041505159
1.2175104298
1.2111950512
1.2057451259
1.2129015940
1.2186741396
1.1993181262
1.2001286581
1.1986488932
1.2046828597
1.2009842660
1.2000097053
1.2005981827
1.2075684499
1.2015705545
1.2020405208
1.2012903761
1.2017138586
1.2006022892
1.2095005766
1.1985574619
1.2002956443
1.1990765968
1.2034337759
1.1989119756
1.2001572352
1.1985269428
1.2040702017
1.2015501869
1.2005578878
1.2002841445
1.2010390756
1.2021637221
1.2011312963
1.2022927075
1.1998636749
1.1987470958
1.2005632248
1.1995076105
1.2027931478
1.1968353149
1.1958355527
1.2005306588
1.1954482796
1.2137672476
1.2176079998
1.1973056447
1.1957304253
1.2084319483
1.1956846819
1.2030138283
1.2103844181
1.1947156908
1.1959987182
1.1966355915
1.2192716858
1.2049128954
1.2014512279
1.2152794191
1.2120469441
1.2165234092
1.1968824442
1.1970082139
1.1953588692
1.2188771801
1.1949106862
1.1950360064
1.2171953262
1.1969834401
1.1963766692
1.2013294974
1.1956996052
1.2152469134
1.2185300910
1.1977860185
1.1956035219
1.2102645060
1.1952249130
1.2047752837
1.2121305284
1.1944641312
1.1961661027
1.1971266937
1.2198126216
1.2067349058
1.2031414849
1.2166554700
1.2137336287
1.2171709760
1.1975745832
1.1963172649
1.1957451122
1.2197800611
1.1947427693
1.1953471785
1.2178540557
1.2053622527
1.2001806729
1.1997419039
1.1992888243
1.1996936180
1.1997953904
1.1973950442
1.2018983316
1.2160605521
1.2156329301
1.2104928859
1.1985926353
1.2095617110
1.2023802179
1.1983912387
1.2005546498
1.1999826109
1.2021858875
1.2001490029
1.1992767750
1.2031174545
1.2065903563
1.1977744360
1.2085716411
1.1991662170
1.1989286196
1.2051407744
1.1975992572
1.2059384706
1.2007314901
1.1989912217
1.1990305584
1.1988639581
1.1996308420
1.1975166170
1.2012858879
1.2173935890
1.2168827691
1.2108563545
1.1990956460
1.2091391204
1.2015516730
1.1979235382
1.2006954811
1.2006009019
1.2029711362
1.1996711096
1.2001796616
1.2025145269
1.1981433388
1.1994997732
1.1989792605
1.2044327497
1.1974221628
1.1969093510
1.1931686600
1.1970546379
1.1983495889
1.1958817010
1.1956842311
1.1945802224
1.1936318220
1.2129748471
1.1974715781
1.1931403956
1.1978536700
1.1974694769
1.1962554213
1.2094439009
1.1958786091
1.1971936947
1.1970078821
1.1959865893
1.1983501898
1.1946840716
1.2159724944
1.1965429336
1.1966389405
1.1966808780
1.1938869474
1.1958776115
1.1936127415
1.1994329700
1.2190928911
1.1982652423
1.1950364656
1.2039247248
1.1975928354
1.1970849025
1.1943153657
1.1944986763
1.1959856845
1.1938194336
1.1948764912
1.1947161364
1.1957315142
1.1936072832
1.2171909404
1.2005298488
1.1949104780
1.1956520910
1.1960274754
1.1962904949
1.1933453341
1.1974139725
1.1946202433
1.1988813781
1.1965679931
1.1962832607
1.1951201636
1.1933167182
1.2145620183
1.1973095960
1.1928990970
1.1976970133
1.1955735278
1.2112532644
1.1956762926
1.1968733837
1.1978369769
1.1978373145
1.1940885268
1.2166513361
1.1963936430
1.1961675951
1.1968025694
1.1940336732
1.1938605143
1.1999911454
1.2197763344
1.1976612750
1.1947610004
1.1948192482
1.2057391284
1.1983497081
1.1947301412
1.1945998342
1.1955234555
1.1942050269
1.1952728097
1.1947427284
1.1953475196
1.1935359459
1.2182286610
1.2021799735
1.1952243115
1.1953376643
1.2120677095
1.2015448346
1.1918565954
1.1927160326
1.1990945173
1.2075916576
1.2145103997
1.1980108274
1.2091388542
1.1938428806
1.1967028446
1.1981260546
1.2001125577
1.1925666258
1.2166079789
1.2156318573
1.2152650688
1.2003693523
1.2065461191
1.2084439281
1.1920471263
1.1987519416
1.2125740325
1.1924239291
1.1923274947
1.2053621470
1.2110566631
1.2006936346
1.2006934199
1.2047564154
1.1990706595
1.1977736430
1.1933678147
1.2045475640
1.2010209316
1.2187446384
1.2166520205
1.1982310775
1.1941893371
1.2141880995
1.2113018897
1.2012923785
1.2149212724
1.1925013609
1.2137422571
1.2009581877
1.1919033404
1.1927560878
1.1992472510
1.2138501215
1.1978192053
1.2108558746
1.1943747654
1.1985263633
1.2010208299
1.1929135625
1.2177653182
1.2168815050
1.2159607285
1.1997933901
1.2075007367
1.2102857824
1.1922731625
1.1983311368
1.2141874420
1.1921067825
1.1924431654
1.2061030718
1.2104923816
1.2015515871
1.2070324411
1.2065877148
1.1997409776
1.1978759549
1.1933261173
1.2051405680
1.2195520882
1.2173920452
1.2122164684
1.1997041173
1.1934661612
1.2153395693
1.2125743922
1.2029826412
1.1928044594
1.1998098988
1.2166045922
1.2084438758
1.1962552804
1.2187411249
1.1931402862
1.1967057594
1.1997035526
1.2026251329
1.1957834284
1.2063446085
1.2178177670
1.2045824837
1.1949822259
1.2064266966
1.1945913743
1.2144632803
1.2029827155
1.2023406229
1.1945911430
1.1957448733
1.1946839481
1.2076746993
1.1965428794
1.1977919403
1.1964550035
1.1975741677
1.1949834431
1.2049283877
1.2100071753
1.1931687172
1.1961669751
1.1974233205
1.2135340532
1.1969101109
1.2158535532
1.1936316658
1.1945230421
1.1974532741
1.1981491037
1.1952120497
1.1989907487
1.2088672505
1.1979874524
1.1932516236
1.1963167229
1.1938888398
1.1938689573
1.2013451680
1.2110237802
1.1938888881
1.1942777206
1.2120669230
1.2004155011
1.1939624996
1.2134942970
1.2152623588
1.1948771007
1.2007379005
1.2177616741
1.2102855035
1.1971982991
1.2195487204
1.1933165160
1.1974530299
1.1936300039
1.2012922259
1.2018768785
1.1951673171
1.2062015767
1.2189115183
1.2040681976
1.2082116304
1.2148580204
1.2047565460
1.2029899888
1.1956647346
1.1941291777
1.1954107799
1.2074132270
1.1964687302
1.1929135266
1.1948780567
1.2051229369
1.2117823646
1.1930950161
1.1984532569
1.2143187100
1.2165441321
1.1940883307
1.1938681191
1.1971984192
1.1973588783
1.1997995523
1.2089582163
1.1933454822
1.1939370048
1.2029750857
1.2110710126
1.1936974559
1.1936076723
1.2137406001
1.1995882642
1.1936492602
1.2150951232
1.2159577078
1.1974140402
1.2065877866