<VTKFile type="UnstructuredGrid" version="0.1">
	<UnstructuredGrid>
		<Piece NumberOfPoints="1862" NumberOfCells="3498">
			<CellData>
				<DataArray type="Int32" Name="type" NumberOfComponents="1" Format="ascii">
0
0
0
0
0
0
0
0
0
0
0
0
0
0
0
0
1
0
0
1
0
0
0
0
0
0
0
0
0
0
0
0
0
1
0
0
0
0
0
0
0
0
0
0
0
0
0
0
0
0
1
0
0
0
0
0
0
0
0
0
0
1
0
0
0
0
0
0
0
0
0
0
0
0
0
0
0
0
0
0
0
0
0
0
0
0
0
0
0
0
0
0
0
0
0
0
0
0
0
0
0
0
0
0
0
0
0
0
0
0
0
0
0
0
0
0
0
0
0
0
0
0
0
1
0
0
0
0
0
0
0
0
0
0
0
0
0
0
0
0
0
0
0
0
0
0
0
0
0
0
0
1
0
1
1
0
0
0
0
0
0
0
0
0
0
0
0
0
1
0
1
0
0
0
0
1
0
0
0
0
0
0
0
0
1
1
0
0
0
0
0
1
0
0
0
0
0
0
0
0
1
0
0
0
0
0
0
0
0
0
0
0
0
0
0
0
0
0
0
0
0
0
0
0
0
0
0
0
0
0
0
0
0
1
0
0
0
0
0
0
0
0
0
0
0
0
0
0
0
0
0
0
0
0
0
0
0
0
0
0
0
0
0
0
0
0
0
0
0
0
0
0
0
0
0
0
0
0
0
0
0
1
0
0
0
0
0
0
0
0
0
0
0
0
0
0
0
0
0
0
0
0
0
0
0
0
0
0
0
0
0
0
0
0
0
0
0
0
0
0
0
0
0
0
0
0
0
0
0
0
0
0
1
0
0
0
0
0
0
0
0
0
0
0
0
0
0
0
0
0
0
0
0
0
0
0
0
0
0
0
0
0
0
0
0
0
0
0
0
0
0
0
0
0
0
0
0
0
0
0
0
0
0
0
0
0
0
0
0
0
1
0
0
0
0
0
0
0
0
0
0
0
0
0
0
0
0
0
0
0
0
0
0
0
0
0
0
0
0
0
0
0
0
0
0
0
0
0
0
0
0
0
0
0
0
0
0
0
0
0
0
0
0
0
0
0
0
0
0
0
0
0
0
0
0
0
0
0
0
0
0
0
0
0
0
0
0
0
0
0
0
0
0
0
0
0
0
0
0
0
0
0
0
0
0
0
0
0
0
0
0
0
0
0
0
0
0
0
0
0
0
0
0
0
0
0
0
0
0
0
0
0
0
0
0
0
0
0
0
0
0
0
0
1
0
0
0
0
0
0
0
0
0
0
0
0
0
0
0
0
0
0
0
1
0
0
0
0
0
0
0
0
0
0
0
0
0
0
0
0
0
0
0
0
0
0
0
0
0
0
0
0
0
0
0
0
0
0
0
0
0
0
0
0
0
0
0
0
0
0
0
0
0
0
0
0
0
1
0
0
0
0
0
0
0
0
0
0
0
0
0
0
0
0
0
0
0
0
0
0
0
1
0
0
0
0
0
0
0
0
0
0
0
0
0
0
0
0
0
0
0
1
0
0
0
1
0
0
0
0
0
0
0
0
0
0
0
0
0
0
0
0
0
0
0
0
0
0
0
0
0
1
0
0
0
0
0
0
0
1
0
0
0
0
0
0
0
0
0
0
0
0
0
0
0
0
0
0
0
0
0
0
0
0
0
0
1
0
0
0
0
0
0
0
1
0
0
0
0
0
0
1
0
0
0
0
0
0
0
0
0
0
0
0
0
0
0
0
0
0
0
0
0
0
0
0
0
0
0
0
0
0
0
0
0
0
0
0
0
0
1
0
0
0
0
0
1
0
0
0
0
0
0
0
1
0
0
0
0
0
0
0
0
0
0
0
0
0
1
0
0
0
0
0
0
0
0
0
0
0
0
0
0
0
0
0
0
0
0
0
0
0
0
0
0
0
0
0
0
0
0
0
0
0
0
0
0
0
0
0
0
0
0
0
0
0
0
0
0
0
0
0
1
0
0
0
0
0
0
0
0
0
0
0
0
0
0
0
0
0
0
0
1
0
0
0
0
0
0
0
0
0
1
0
0
0
0
0
0
0
0
0
0
0
0
0
0
0
0
0
0
0
0
0
0
0
0
0
0
0
0
0
1
0
1
0
0
0
0
0
0
0
0
0
0
0
0
0
0
0
0
0
0
0
0
0
0
0
0
0
0
0
1
0
0
0
1
0
0
0
0
0
0
0
0
0
0
0
0
0
0
0
0
0
0
0
0
0
0
0
0
0
0
0
0
1
0
0
0
0
0
0
0
0
0
0
0
0
0
0
0
0
0
0
0
0
0
0
0
0
0
1
0
0
0
0
0
0
0
0
0
0
0
0
0
0
0
0
0
0
0
0
0
0
0
1
0
0
0
0
0
0
1
0
0
0
0
0
0
0
0
0
0
0
1
0
0
0
0
0
0
0
0
0
0
0
0
0
0
0
0
0
0
0
0
1
0
0
0
0
0
0
0
0
0
0
0
1
0
0
0
0
0
0
0
0
0
0
0
0
0
0
0
0
0
0
0
0
0
1
0
0
0
0
0
0
0
0
0
1
1
0
1
0
1
0
0
0
0
0
0
0
0
0
0
0
1
0
0
0
0
0
1
1
0
0
0
0
0
0
1
0
0
0
0
0
1
1
1
0
0
0
0
0
0
0
0
0
0
0
0
1
1
0
0
1
0
0
0
0
0
1
0
0
0
1
0
1
0
0
0
0
0
0
0
1
0
0
0
0
0
0
0
1
0
0
1
0
0
0
0
0
0
0
0
0
0
0
0
0
0
0
1
0
0
0
0
0
0
0
0
0
0
0
0
0
0
0
0
0
0
0
0
0
0
0
0
0
0
0
0
0
0
0
0
0
0
0
0
1
0
0
0
0
0
0
1
0
0
0
1
0
0
0
0
0
0
0
0
0
0
0
1
0
0
0
0
0
0
0
0
0
0
0
0
0
0
0
0
0
0
0
0
0
0
0
0
0
0
0
0
0
0
0
0
0
0
0
0
0
0
0
0
1
1
0
0
0
0
0
0
0
0
0
0
0
0
0
1
0
0
0
0
0
0
0
0
0
0
0
0
0
0
0
0
0
0
0
0
0
0
0
0
0
0
0
0
0
0
0
0
0
0
0
0
0
0
0
0
0
0
0
0
0
0
0
0
0
0
0
0
0
0
0
0
0
0
0
0
0
0
0
0
0
0
0
0
0
0
0
0
1
1
0
0
0
0
0
0
0
0
1
0
0
0
0
0
0
0
0
0
0
0
0
0
0
0
0
0
0
0
0
0
0
0
1
0
0
0
0
0
0
0
0
0
0
0
0
0
0
0
0
1
0
0
0
0
0
0
0
0
0
0
0
0
0
0
0
0
0
0
0
0
0
0
0
0
0
0
0
0
0
0
0
0
0
0
0
0
0
0
0
0
0
0
0
0
0
0
0
0
0
0
0
0
0
0
0
0
0
0
0
0
0
0
0
0
0
0
0
0
0
0
0
0
0
0
0
0
0
0
0
0
0
0
0
0
0
0
0
0
0
0
1
1
0
0
0
0
0
1
0
0
0
0
0
0
0
0
0
0
0
0
1
0
0
0
0
0
0
0
0
0
0
0
0
0
0
0
0
0
0
0
0
0
0
0
0
0
0
0
0
0
0
0
0
0
0
0
0
0
0
0
0
0
0
0
0
0
0
0
0
0
0
0
0
0
1
0
1
0
0
0
0
0
0
0
0
0
0
0
0
0
0
0
0
0
0
1
0
0
0
0
0
0
0
0
0
0
0
0
0
0
0
0
0
0
0
0
0
0
0
0
0
0
0
0
0
0
0
0
0
0
0
0
0
0
0
0
0
0
0
0
0
0
0
0
0
0
0
0
0
0
0
0
0
0
0
0
0
0
0
0
0
0
0
0
0
0
1
0
0
0
0
0
0
0
0
0
0
1
0
0
0
0
0
0
0
0
0
0
0
0
0
0
0
0
0
0
0
0
0
0
0
0
0
0
0
0
0
0
0
0
0
0
0
0
0
1
0
0
0
0
0
0
0
0
0
0
0
0
0
0
0
0
0
0
0
0
0
0
0
0
0
0
0
0
0
0
0
0
0
0
0
0
0
0
0
0
0
0
0
0
0
0
0
0
0
0
0
0
0
0
0
0
0
0
0
0
0
0
0
0
0
0
0
0
0
0
0
0
0
0
0
0
0
0
0
0
0
1
0
0
0
0
0
0
0
0
0
0
0
0
0
0
0
0
0
0
0
0
0
0
0
0
0
0
0
0
0
0
0
0
0
0
0
0
0
0
0
0
0
0
0
0
0
0
0
0
0
0
0
0
0
0
0
0
0
0
0
0
0
0
0
0
0
0
0
0
0
0
0
0
0
0
0
0
0
0
0
0
0
0
0
0
0
0
0
0
0
0
0
0
0
0
0
0
0
0
0
0
0
0
0
0
0
0
0
0
0
0
0
0
0
0
0
0
0
0
0
0
0
0
0
1
0
0
0
0
0
0
0
0
0
0
0
0
0
0
0
0
0
0
0
0
0
0
0
0
0
0
0
0
0
0
0
0
0
0
0
0
0
0
0
0
0
0
0
0
0
0
0
0
0
0
0
0
0
0
0
0
0
0
0
0
0
0
0
0
0
0
0
0
0
0
0
0
0
0
0
0
0
0
0
0
0
1
0
0
0
0
0
0
0
1
0
0
0
0
0
0
0
0
0
0
0
0
0
0
0
0
0
0
0
0
0
0
0
0
0
0
0
0
0
0
0
0
0
0
0
0
0
1
0
0
0
0
0
0
0
0
0
0
0
0
0
0
0
0
0
0
0
0
0
1
0
0
0
0
0
0
0
0
0
0
0
0
1
1
0
0
0
0
0
0
0
0
0
0
0
0
0
0
0
1
1
0
1
0
0
0
0
0
0
0
0
0
1
0
0
0
0
0
0
1
0
0
0
0
0
0
0
0
0
0
1
0
0
0
0
1
0
1
0
0
0
0
0
0
0
1
0
0
0
1
0
0
0
1
0
1
1
0
0
1
1
0
0
0
1
0
0
0
1
0
0
0
0
0
0
0
0
0
1
0
0
0
0
0
0
1
0
0
0
0
0
0
0
0
0
0
0
0
0
0
0
0
0
0
0
0
0
0
0
0
0
0
0
1
0
0
1
0
0
0
0
0
0
0
0
0
0
0
0
0
0
0
0
0
0
1
0
0
1
0
0
0
0
0
0
0
0
0
0
0
1
0
0
1
0
0
0
0
0
0
0
0
0
0
0
1
1
0
0
0
0
0
0
0
0
0
0
0
0
1
0
0
0
0
0
0
0
0
0
0
0
0
0
0
0
0
0
1
0
0
0
0
0
0
0
0
0
0
0
0
0
0
0
0
0
1
0
0
0
0
0
0
0
0
0
0
0
0
0
0
0
0
0
0
0
0
0
0
0
0
0
0
0
0
0
0
0
0
0
0
0
0
0
0
0
0
1
0
0
0
0
0
0
0
0
0
0
0
0
0
0
0
0
0
0
0
0
0
0
0
0
0
0
0
0
0
0
0
0
0
0
0
0
0
0
0
0
0
0
0
0
0
1
0
0
0
0
0
0
0
0
0
0
0
0
0
0
0
0
0
0
0
0
0
0
0
0
0
0
0
0
0
0
0
0
0
0
0
0
0
0
0
0
0
0
0
0
0
0
0
1
0
0
0
0
0
0
0
0
0
0
1
0
0
0
0
0
0
0
0
0
0
0
0
0
0
0
1
0
0
1
0
0
0
0
0
0
0
0
0
0
0
0
0
0
0
0
0
0
0
0
0
0
0
1
0
0
0
0
0
0
0
0
0
0
0
0
0
0
0
0
0
0
0
0
0
0
0
0
0
0
0
0
0
0
0
0
0
0
0
1
0
0
0
0
0
0
0
0
0
0
0
0
0
0
0
0
0
0
0
0
0
0
0
0
0
0
0
0
0
0
0
0
0
0
0
0
0
0
0
0
0
0
0
0
0
0
0
0
0
0
0
0
0
0
0
0
0
0
0
0
0
0
0
0
0
0
0
0
0
0
0
0
0
0
0
0
1
0
0
0
0
0
0
0
0
0
0
0
0
0
0
0
0
0
0
0
0
0
0
0
0
0
0
0
0
0
0
0
0
0
0
0
0
0
0
0
1
0
0
0
0
0
0
0
0
0
0
0
0
1
1
0
0
0
0
0
0
0
0
0
0
0
0
0
0
0
0
0
0
0
0
0
0
0
0
0
0
0
0
0
0
0
0
0
0
0
0
0
0
0
0
0
0
0
0
0
0
0
0
0
0
0
0
0
0
0
0
0
0
0
0
0
0
0
0
0
0
0
0
0
0
0
0
0
0
0
0
0
0
0
0
0
0
0
0
0
0
0
0
0
0
0
0
0
0
0
0
0
0
0
0
0
1
0
1
0
0
0
0
0
0
0
1
1
1
1
0
0
0
0
0
0
0
0
0
0
0
0
0
0
0
0
0
0
0
0
0
0
0
0
0
0
0
0
1
1
0
0
0
0
0
0
0
0
0
0
0
0
0
0
0
0
0
0
1
0
0
0
0
0
0
0
1
1
0
1
1
0
0
1
0
0
0
0
0
0
0
1
0
1
0
0
0
0
0
0
0
0
0
0
0
0
0
0
0
0
0
0
0
0
0
0
0
0
0
0
0
1
1
0
0
0
1
1
0
0
0
0
1
0
0
1
0
1
0
0
0
0
0
1
0
0
0
1
0
0
0
0
0
0
0
0
0
0
0
0
0
0
0
0
0
0
0
0
0
0
0
0
0
0
0
1
0
0
0
0
0
0
1
0
0
0
0
0
0
0
0
0
0
0
0
0
0
0
0
0
0
0
0
0
0
0
0
0
0
0
0
0
1
0
1
0
0
0
0
0
0
0
1
0
0
0
0
0
0
0
0
0
0
0
1
0
0
0
0
0
0
0
0
0
1
0
0
0
0
0
0
0
1
0
0
0
0
0
0
0
1
0
0
0
0
0
0
0
0
0
0
0
0
0
0
0
0
0
0
0
1
0
1
0
0
0
0
0
1
0
0
0
0
0
0
0
0
0
0
0
0
0
0
0
0
0
0
0
0
0
0
0
0
0
1
0
1
0
0
0
0
0
0
0
0
0
1
0
0
0
0
0
1
0
0
0
0
0
0
0
0
0
0
0
0
0
0
0
1
0
0
0
0
0
0
0
0
1
0
0
0
0
0
0
0
0
0
0
0
0
0
0
0
0
0
0
0
0
0
0
0
0
0
0
0
0
0
0
1
0
0
0
0
0
0
0
0
0
0
0
0
0
0
0
0
1
0
0
0
0
0
0
0
0
1
0
0
0
0
0
0
0
0
0
1
0
0
0
0
0
1
0
0
0
0
0
0
0
0
0
0
0
0
0
0
0
0
0
0
0
1
0
0
0
0
0
0
1
0
0
0
0
0
0
0
0
1
0
0
0
0
0
0
0
0
0
0
0
0
0
0
1
0
0
1
0
0
0
1
0
0
0
0
0
0
0
0
0
0
0
0
0
0
0
0
1
0
0
0
0
0
0
0
0
0
0
1
0
1
0
0
0
0
0
0
1
0
0
0
0
0
0
0
0
0
0
0
0
0
0
0
0
0
0
0
0
0
0
0
0
0
0
0
1
1
0
0
0
0
0
0
1
0
0
0
0
0
0
0
0
0
0
0
0
0
1
0
0
0
0
0
0
0
1
0
0
0
0
0
0
0
0
0
0
0
0
0
0
0
0
0
0
0
0
0
0
0
0
0
0
0
1
0
0
0
0
0
0
0
0
0
0
1
0
0
1
0
0
0
0
0
0
0
0
0
0
0
0
0
0
0
0
0
0
0
0
0
0
0
0
0
0
0
0
0
1
0
0
0
0
0
0
0
1
0
0
0
0
0
0
0
1
0
0
0
0
1
0
0
0
0
0
0
0
0
0
0
0
1
0
1
0
0
0
1
0
				</DataArray>
				<DataArray type="Float64" Name="h" NumberOfComponents="1" Format="ascii">
1.1984699963
1.1984632403
1.2000333212
1.1972655838
1.2007366681
1.2002813331
1.1988236556
1.1965241875
1.1988742266
1.1944677452
1.1966685202
1.1992649898
1.1971731210
1.1953203588
1.1971390477
1.1961110912
1.1977998036
1.1951002901
1.1984656988
1.1955008756
1.2013046582
1.1982096507
1.2003290833
1.2020700976
1.1969427185
1.1959763778
1.2001642629
1.2060458096
1.2015656835
1.1944548342
1.1946606104
1.2003603790
1.1982415337
1.2004302731
1.2057589955
1.2028732672
1.2036323602
1.2012988025
1.2060426820
1.2020929880
1.2016084309
1.2060035413
1.2001608120
1.2025246930
1.2029479736
1.2048405869
1.2012853468
1.2072849214
1.2150026183
1.2144918142
1.2028256608
1.2037976966
1.2025382816
1.2099994495
1.2051454491
1.2010431446
1.2048217953
1.2090184661
1.2098173841
1.2093021322
1.2114552640
1.2109924127
1.2143845979
1.2038759476
1.2034825341
1.2080444327
1.2139340319
1.2138151367
1.2107280703
1.2102159754
1.2096563277
1.2055833763
1.2020970122
1.2108448670
1.2101826548
1.2078158695
1.2091320298
1.2113362848
1.2079452213
1.2072488377
1.2126941403
1.2090185163
1.2165681352
1.2131776840
1.2060549826
1.2089174430
1.2133436119
1.2125240452
1.2119030616
1.2164697740
1.2135616929
1.2078713587
1.2118881242
1.2162148681
1.2099581968
1.2089111815
1.2120096600
1.2061404955
1.2070732848
1.2132558919
1.2163312221
1.2131335250
1.2108999124
1.2083138813
1.1928645876
1.2135697912
1.2107731339
1.2155103044
1.2113647107
1.2099356704
1.2157235509
1.2161031515
1.2130069031
1.2137957697
1.2116565997
1.2152897109
1.2108914705
1.1934774884
1.2149071481
1.2124026373
1.1925671234
1.2118979823
1.2096346116
1.1897686692
1.2132296518
1.2154488735
1.2116676476
1.1902029846
1.2150520675
1.2154940392
1.2145835722
1.2108220317
1.2124707120
1.2155965809
1.1924782348
1.2146011710
1.1948963334
1.2155340600
1.2142307391
1.1973417449
1.1909960901
1.1905844516
1.2147480818
1.1991674800
1.2097197047
1.2141361541
1.1959302661
1.2160014890
1.1908890865
1.2158536606
1.1940422594
1.2157193080
1.2155803003
1.2158283683
1.2136739149
1.2155619762
1.2159466992
1.1920721421
1.2157646405
1.1891133491
1.1982605617
1.2159402668
1.1952597072
1.1901251008
1.1914079017
1.2158349541
1.2010121556
1.1967257744
1.1883427374
1.2154560211
1.2159962281
1.1880944336
1.2158030451
1.1922786827
1.2018714318
1.2154733840
1.2000153138
1.2163056941
1.2156769991
1.1905207644
1.2157228150
1.2037596799
1.1894284670
1.2104702732
1.1878874355
1.1870384609
1.2029089887
1.2156574146
1.1881183926
1.1871564078
1.2056305189
1.2158336917
1.1884367599
1.2048291842
1.2154763163
1.2163642299
1.1918838300
1.2074708050
1.2066664288
1.2155373514
1.1869659111
1.2114763946
1.1871553427
1.2156868095
1.2093139933
1.1911648006
1.1969373864
1.1942822427
1.2084793974
1.2000642061
1.2054877282
1.1880000459
1.1916436216
1.1914373299
1.1955995592
1.2073052885
1.1983977264
1.1919990217
1.2036541756
1.1897847207
1.2103171177
1.2168055135
1.2018278017
1.2158898724
1.2123026741
1.2163015842
1.2170800618
1.2143968041
1.2111540544
1.2170265188
1.2158866212
1.2164252440
1.2134140350
1.2157732983
1.2167021719
1.2152185052
1.2062773104
1.1978317138
1.1899681341
1.2008568682
1.2060976300
1.1952710276
1.1925086687
1.2008521879
1.1949769497
1.1976780107
1.1920199476
1.2044373483
1.1965242115
1.1932246303
1.1992704407
1.2043060865
1.1928297013
1.2081219959
1.2079086124
1.1928328286
1.1991838010
1.1963133094
1.1914338074
1.2165305411
1.2025479403
1.2129344920
1.2149977076
1.2165483084
1.2132401868
1.2169439744
1.2169194037
1.2109539156
1.2159220404
1.2175311510
1.2178245354
1.2026182751
1.2172120429
1.2150972653
1.2159302430
1.2117769345
1.2140219819
1.2158242389
1.2171219558
1.2121255264
1.2172985932
1.2162820350
1.2165140408
1.2173940474
1.2177674377
1.2169545884
1.2142396748
1.1986068913
1.1932908343
1.1937614876
1.1985177910
1.2068938220
1.1962094875
1.1959755274
1.2015234180
1.2066556560
1.2015859637
1.1973539229
1.1943653823
1.1928291178
1.1941302527
1.1971959200
1.2050728139
1.2084648916
1.2087317761
1.1999973638
1.2048800394
1.1999824854
1.1939776016
1.2135205972
1.2157338670
1.2155989869
1.2165528469
1.2115386109
1.2186043744
1.2171780952
1.2031607578
1.2179550283
1.2176962666
1.2032939409
1.2171920573
1.2138405374
1.2182477946
1.2177028968
1.2146119371
1.2148514161
1.2164568820
1.2172270331
1.2165159885
1.2176587965
1.2180645448
1.2181937355
1.2170034760
1.2123479976
1.2177999742
1.2127265308
1.2185192403
1.1992252498
1.2204708331
1.2020596238
1.2071578011
1.2022056806
1.1944756487
1.2074570601
1.1970035864
1.1992353720
1.1968319219
1.1948965247
1.2212091499
1.2159098388
1.2089733950
1.2196204644
1.1979574844
1.1950552482
1.2217014801
1.2005753055
1.2174309173
1.2053787245
1.2006448826
1.2208311402
1.2207420989
1.2213842636
1.1941263821
1.2056427255
1.2092902355
1.1980475564
1.2134631400
1.2154406058
1.2179798396
1.1953046330
1.2193411672
1.2217431347
1.1953917669
1.2185765741
1.2178183978
1.2178249233
1.2185366838
1.1972187843
1.2193927460
1.2140636349
1.2120775216
1.2186858728
1.2173743050
1.2036693723
1.2189459727
1.2038809830
1.2144131426
1.2163526761
1.2161730598
1.2020225802
1.2178815681
1.2128735768
1.2171473562
1.2114221278
1.2190558391
1.2184590345
1.1973045946
1.1979560829
1.1989982177
1.2076706186
1.2151682225
1.2188395336
1.2057364864
1.2183409869
1.2095810552
1.2180658466
1.2192624200
1.2132866886
1.2154407755
1.2038326052
1.2170611898
1.2147345742
1.2196483956
1.2163308732
1.1997807216
1.2211560305
1.2203500200
1.2027110385
1.2202579285
1.2154484341
1.2138385103
1.2120994631
1.1975237758
1.2210729866
1.2218119195
1.2183293171
1.2199107413
1.1955303461
1.2213569408
1.2079670011
1.2169975551
1.2223411105
1.2201397983
1.2219685363
1.2184399457
1.2188620355
1.2229141725
1.2200861709
1.2202777094
1.2141429035
1.2166903359
1.2201432353
1.1985649764
1.2218231590
1.2160901510
1.2011680722
1.2165155450
1.2181330360
1.2190568722
1.2219058008
1.2205978087
1.2193108792
1.1953007651
1.2142866957
1.2061467590
1.2121014896
1.2233480236
1.2226585928
1.2188422626
1.2232797520
1.1959880397
1.2098012716
1.2001719318
1.2183171659
1.2043811099
1.2184546016
1.2174788971
1.2149513289
1.2090534567
1.1980160587
1.2194075722
1.2031103120
1.2193998714
1.2065907745
1.2125770429
1.2169376441
1.2242927078
1.2031952160
1.1963946356
1.1971951730
1.1970749003
1.2102689741
1.1989888344
1.2189781455
1.2238017090
1.2238472919
1.2196070184
1.1973126276
1.2177591959
1.1973599818
1.2171857911
1.2138071749
1.2250419630
1.1967137359
1.1973027118
1.2003828123
1.2015540075
1.2247195193
1.2190086088
1.1963785735
1.2215981051
1.2228195423
1.2013637954
1.1989975427
1.2076713158
1.2048034842
1.2159988501
1.1963049850
1.2120716061
1.2185222035
1.1973138146
1.2084282326
1.2204458044
1.2031108176
1.2143622503
1.1963912350
1.2210035594
1.2154696648
1.1966221103
1.2027685752
1.2084307208
1.2178166455
1.2169824605
1.2209253609
1.1999712589
1.2224003883
1.1948145574
1.2191883906
1.2127057812
1.2080235878
1.2213166156
1.2001719660
1.2197743391
1.1979949650
1.1980149342
1.2081612845
1.1967106981
1.2015542117
1.1963014880
1.2127065820
1.2102719557
1.2061585727
1.1981220102
1.1966134302
1.2020086111
1.2012747148
1.1964983036
1.2065925514
1.2040892561
1.1965431413
1.2232107231
1.1999875213
1.1988766321
1.2118418426
1.1968622045
1.2134899769
1.2098753534
1.1954409926
1.2223651638
1.2227845479
1.2061875191
1.1951038546
1.2226640007
1.1989884809
1.2100625913
1.2200911868
1.2048045150
1.2174824389
1.2196461170
1.2193256674
1.2044193291
1.2183736661
1.2221302293
1.2194580891
1.2154517906
1.1970909550
1.2130402327
1.2158905385
1.2204475429
1.2065248276
1.2014094726
1.2190613173
1.2215996772
1.1925709023
1.2172930578
1.1981156777
1.2202881733
1.2196529623
1.2165188835
1.1907611965
1.2199244503
1.2075970275
1.1997285722
1.2101685373
1.1932870568
1.2142902797
1.2084036265
1.1972324003
1.2247103864
1.2051347974
1.2109310450
1.2046951332
1.2241581593
1.2000602534
1.2183333550
1.1971340809
1.2042333566
1.2238168579
1.2203558882
1.1845462354
1.2019578867
1.1975293495
1.2232409905
1.1885832869
1.2158910195
1.1989579799
1.2197421769
1.1979938193
1.2044202063
1.2080255711
1.1999711579
1.2229114604
1.2150069773
1.1971896353
1.1966191632
1.2029712387
1.1833006599
1.2244454359
1.1968594775
1.1935482766
1.2042334141
1.1869017963
1.1966030158
1.2098776925
1.2027690480
1.2061889839
1.1988761670
1.2229748159
1.2250307873
1.2217764149
1.2185741115
1.1966104771
1.2019441308
1.2063672982
1.2073525249
1.2246558017
1.2225540244
1.2118421232
1.1995709897
1.2242668250
1.1799449033
1.2019595504
1.1972830562
1.1982580242
1.1757718821
1.2054704537
1.2092411410
1.2012747889
1.2221013041
1.2004576337
1.1975219722
1.1976275632
1.2208062292
1.2237575646
1.2255019018
1.2211402869
1.1792156912
1.2036525971
1.1973099977
1.1992079879
1.2255507029
1.2260371984
1.2081617323
1.1994036437
1.2062955821
1.1903043039
1.2230573763
1.1887815373
1.1922861073
1.2269639105
1.2258429963
1.2032633513
1.2011574302
1.2237039775
1.1987392084
1.1967842725
1.1844569067
1.2247166532
1.2263865682
1.2254188586
1.1964304128
1.1942852362
1.1817142269
1.1862517854
1.1894796085
1.2244981895
1.2253093199
1.2226515079
1.2236151859
1.1748763031
1.2260592383
1.2267847982
1.1829227282
1.2250286322
1.2241239944
1.1845439033
1.2273711118
1.1999870234
1.2258167966
1.1944056961
1.1954590753
1.2273811471
1.1885814013
1.2266291726
1.2265595693
1.1951027316
1.2258405750
1.1935556250
1.1925123533
1.2251936639
1.2257494362
1.1968913920
1.1992476854
1.1993933013
1.1993873986
1.1992389468
1.1986962717
1.1992662576
1.1966704817
1.1973503051
1.2007658049
1.2002843588
1.2007329600
1.2007612823
1.1988689995
1.1971439502
1.1988267015
1.1951957013
1.1973474308
1.1986946079
1.1968259754
1.1951022751
1.1972657820
1.2000311514
1.1984749884
1.1944568576
1.1959862418
1.1991311565
1.1965195908
1.1959743403
1.1969407953
1.1944659147
1.1974102762
1.1971687290
1.2013427500
1.1972731472
1.1992390426
1.1951935049
1.1946608877
1.1968209129
1.2004287242
1.1982468604
1.2003722906
1.1991349393
1.2020944625
1.2054903368
1.1978022924
1.1961113089
1.2001761868
1.2060562881
1.1991309121
1.1959851640
1.2016152513
1.1953189178
1.1955034509
1.2013419291
1.2003137784
1.2073937995
1.1982019722
1.2035276139
1.1974049006
1.2013044157
1.1992275564
1.1993207396
1.2070224542
1.2072829079
1.1972724105
1.2029505537
1.2028239647
1.2013030784
1.2060351763
1.2020678367
1.2015560971
1.2048286161
1.2044907973
1.2001517065
1.2044102937
1.1952433039
1.2054741347
1.2061997254
1.2060777660
1.1991276287
1.2025500531
1.2073956973
1.2150802586
1.2137920658
1.1993072460
1.2035275264
1.2045011391
1.2070206293
1.2028699682
1.2035003257
1.2012786283
1.2065403720
1.2057601268
1.2143777980
1.2138029777
1.2070425978
1.2036329614
1.2038797791
1.2062002762
1.2084020648
1.2089007906
1.2025076803
1.2108357932
1.2091423490
1.2055834215
1.2021144990
1.2099181750
1.2041618610
1.2034617114
1.2044102174
1.2118129382
1.2060791240
1.2060053577
1.2091295305
1.2096532940
1.2108978233
1.2101770157
1.2044712394
1.2022163921
1.2107252922
1.2050734116
1.1952420565
1.2102137778
1.2045005679
1.2065420087
1.2080590258
1.2070431445
1.2131477874
1.2076521111
1.2145781681
1.2150109899
1.2037932457
1.2138020367
1.2048290395
1.2090160762
1.2131643566
1.2080711379
1.2150914015
1.2145046301
1.2114576532
1.2109946419
1.2021960029
1.2121717997
1.2109050636
1.2098209096
1.2085784172
1.2091473541
1.2068007732
1.2030400719
1.2084044288
1.2050751571
1.2072673835
1.2051448740
1.2106419519
1.2099199966
1.2118156081
1.2010289894
1.2090249881
1.2102930456
1.2041445456
1.2100039740
1.2089040056
1.2093063346
1.2078796501
1.2090202531
1.2034407855
1.2118852810
1.2131593329
1.2083120020
1.2070826040
1.2080746075
1.2049879284
1.2076542412
1.2131309140
1.2141030091
1.2127897101
1.2125188026
1.2080432934
1.2163271793
1.2139483583
1.2070329549
1.2061556570
1.2124481694
1.2089139244
1.2081944548
1.2145931128
1.2132535087
1.2135559831
1.2080542169
1.2164080011
1.2090278468
1.2113606474
1.2160938056
1.2121745577
1.2102976065
1.2130023188
1.2072695779
1.2078078123
1.2158172366
1.2085818615
1.2113397514
1.2030230712
1.2134851687
1.2067913433
1.2157089081
1.2099329788
1.2106446337
1.2127926644
1.2164096824
1.2099553489
1.2124504053
1.2089123976
1.2118897232
1.2117438371
1.2070344859
1.1942895275
1.2081973873
1.2125302338
1.2060415717
1.2072373976
1.2133457625
1.2165706124
1.2126963432
1.2108846893
1.2079470367
1.2141183785
1.1925672586
1.2125353319
1.2049734254
1.2134873963
1.2108197070
1.2152053951
1.1938991190
1.2154446946
1.2125015035
1.2139037970
1.2119078518
1.2099590352
1.2162269308
1.2151778087
1.2164767294
1.2135642064
1.2149020218
1.2091521024
1.2132221549
1.2116580967
1.2158336318
1.2154920800
1.2109066152
1.2157141661
1.2153033849
1.2099608950
1.1942904560
1.2117497780
1.2143554300
1.1924792822
1.2145990955
1.2124635940
1.1928645693
1.2120167818
1.2097220520
1.2145257384
1.1905855383
1.2131225655
1.1939013612
1.2151794916
1.2137998077
1.2155163906
1.1945863238
1.2091535733
1.2139072746
1.2116666185
1.1908897824
1.2152226409
1.2147465879
1.1891286155
1.2152906297
1.2125063638
1.2141346952
1.2149055087
1.2107735062
1.1915850921
1.2086107876
1.2146784607
1.2158837442
1.2157165909
1.2143605034
1.1933114579
1.2152164988
1.2157890745
1.2138625343
1.2124119022
1.2153213233
1.2157175634
1.1934761751
1.2143037473
1.2149097918
1.1932977016
1.1940408160
1.2155787696
1.2136716987
1.1945904638
1.1891271511
1.1967229622
1.1914082414
1.2131315104
1.2157340001
1.1915838778
1.1898690019
1.2159139084
1.2139383830
1.2145420958
1.1897668473
1.2150535161
1.1982618161
1.1915721154
1.2096312864
1.2145852985
1.1924539930
1.1952557352
1.2146700834
1.2159384200
1.1902014052
1.2157628264
1.2138642082
1.1949002215
1.2155981921
1.2157216901
1.2135226077
1.2157917388
1.2154769088
1.2155353016
1.2158013977
1.1933725380
1.1932505139
1.2142327611
1.1932962280
1.2146943873
1.1933111497
1.2158854273
1.2086064754
1.2143053998
1.2154543488
1.2150513461
1.2152179170
1.2159944358
1.1922788837
1.2158555920
1.1894310968
1.2127666930
1.1915715980
1.1898673182
1.2159273886
1.2157657104
1.2157823546
1.1991615674
1.2160035275
1.1959334913
1.1905228459
1.2159161775
1.1924530179
1.2139498444
1.1903547556
1.1909949539
1.2157215087
1.2146715908
1.2000224705
1.2146543336
1.1973420610
1.2157357214
1.1895305079
1.1881207478
1.2155630900
1.2159484824
1.1932503971
1.2126052736
1.2157233617
1.1914345670
1.1933727763
1.2135338560
1.1878901580
1.2154779548
1.2158298885
1.1920712568
1.2150531492
1.2029226566
1.2116058005
1.2154751455
1.2010004256
1.1895283122
1.2159289365
1.2163625065
1.1903522497
1.2157840210
1.2146562171
1.2159315268
1.1882361289
1.2157674336
1.2127737207
1.1893116847
1.2158321124
1.2153043103
1.1901227079
1.2158363137
1.2048407158
1.2161818603
1.1891108786
1.2114768863
1.2154551340
1.1880918431
1.1871579290
1.2018601538
1.2156849504
1.2126099132
1.1883404361
1.1869682956
1.1914333637
1.2066738977
1.2154119947
1.2156784527
1.1917115843
1.1882335267
1.1893094092
1.1880027308
1.2161839949
1.2159334712
1.1906932268
1.2165158487
1.2037481772
1.2153060946
1.2154745224
1.2116071133
1.1885015502
1.1878394615
1.2163081191
1.1916460491
1.2084831621
1.2056224103
1.2158841890
1.2154564716
1.1871539818
1.2154134162
1.2157095898
1.2155072885
1.2104686309
1.1870357483
1.2156591121
1.2103190332
1.1920233608
1.1976759395
1.1927772426
1.1949755606
1.2074666978
1.1878368219
1.2091302627
1.1893047114
1.2008570000
1.1930534196
1.1917098657
1.2062792153
1.1884338015
1.1891798708
1.2165179667
1.1918820032
1.1906220327
1.1963102989
1.1938192236
1.2081216753
1.1991850354
1.1928323321
1.2044420903
1.1884987228
1.1899711709
1.1906903143
1.2159931881
1.2099635812
1.2093122144
1.2157118437
1.2169394537
1.2026244068
1.2155090227
1.2159138247
1.2121263006
1.2165102082
1.2172908171
1.2169710844
1.2142330853
1.2109534094
1.2172006273
1.2155393357
1.2165131751
1.2132389417
1.2159192022
1.2172051477
1.2169395859
1.2150846971
1.2054825584
1.1985166368
1.1941525983
1.1897814280
1.2015884517
1.2068926992
1.1930517335
1.2091303001
1.1927760685
1.1906763807
1.2097311000
1.1959749410
1.1932945546
1.1893017727
1.2000596480
1.1942831926
1.1969404106
1.1911609707
1.2036464329
1.1971941478
1.1939806190
1.1891766987
1.1999832855
1.2050737542
1.1919958910
1.2073032233
1.2087288057
1.1948792662
1.1920474544
1.1983978201
1.1938184104
1.1956027164
1.1906185598
1.2164425671
1.2032964441
1.2105583014
1.2127259300
1.2148487760
1.2165040399
1.2134172810
1.2172104567
1.2167048350
1.2172196963
1.2111536761
1.2157761693
1.2176997014
1.2176448257
1.2180538740
1.2018201427
1.2159959676
1.2170358059
1.2152320941
1.2159072955
1.2115353899
1.2138405220
1.2157264110
1.2171639467
1.2123025238
1.2170852639
1.2169743654
1.2165475400
1.2099656315
1.2163043315
1.2176944739
1.2179426292
1.2179730255
1.2168194481
1.2144053418
1.1992247198
1.1951914047
1.1925046583
1.1906731512
1.1944796268
1.1978338241
1.2060965934
1.2102825224
1.1968323456
1.2097342889
1.1952716083
1.2022064314
1.2074541331
1.2008538500
1.1941507689
1.1979568763
1.1950587247
1.1920436551
1.1933974173
1.1965264628
1.2043027367
1.2092857167
1.1958552205
1.2079096681
1.1948778383
1.2006451489
1.2056415216
1.1992702579
1.1932212255
1.2132836911
1.2158339070
1.2154391129
1.2162867847
1.2117786187
1.2188292412
1.2171377718
1.2038811832
1.2177793892
1.2179823329
1.2184969302
1.2180541724
1.2111043552
1.2025436345
1.2171401659
1.2140227957
1.2183309395
1.2173997559
1.2144117724
1.2150023140
1.2163486029
1.2169243727
1.2105629041
1.2187816940
1.2165622831
1.2175458258
1.2178336447
1.2185249782
1.2173648251
1.2120724545
1.2178090574
1.2129344646
1.2186757836
1.2177066757
1.2211472003
1.2169945768
1.2107900394
1.2202536839
1.1986079862
1.1951890788
1.2208637497
1.2217612612
1.2027106551
1.2165918021
1.2079634070
1.2015217978
1.2202137846
1.2210676826
1.2214260033
1.1937574014
1.2066571238
1.2102879315
1.1975248426
1.1997804698
1.1962092614
1.2147321185
1.2141990695
1.2188585469
1.1955342440
1.2186127458
1.2213069092
1.1961067102
1.2209762950
1.2161604531
1.2097966320
1.2196767134
1.1973550174
1.1943617302
1.2203453042
1.2219896533
1.2011678542
1.2176509399
1.2061444937
1.1999971162
1.2208112121
1.2206673106
1.2209145826
1.1933935490
1.2048795809
1.2084681989
1.1966622866
1.1985650649
1.1958531184
1.2138029124
1.2151308418
1.2181417804
1.1946363520
1.2194704090
1.2216234727
1.1959915420
1.2031048194
1.2189640462
1.2116073481
1.2178117121
1.2098608034
1.2193262452
1.2177545549
1.2182034502
1.1971970859
1.1969429513
1.1987948510
1.2195990519
1.1973609257
1.2059668774
1.2138030758
1.2187925959
1.2123516496
1.2068328986
1.2185303975
1.2106334682
1.2170108897
1.2043800246
1.2190022860
1.2031590001
1.2146127301
1.2164628652
1.2020300098
1.2159962247
1.2013640587
1.2183038353
1.2125720013
1.2172016765
1.2109300074
1.2193953777
1.2184488401
1.2185069503
1.1976231577
1.1974310167
1.1974350383
1.2196040400
1.1983884266
1.2071041385
1.2149482384
1.2186147721
1.2111100846
1.2051341032
1.2182597657
1.2090525106
1.2177051666
1.2193930553
1.2135221532
1.2156014385
1.2031951114
1.2169343568
1.2150289325
1.2224088759
1.2196165885
1.2201606170
1.2154681841
1.2165945984
1.2178145503
1.2193935183
1.1992357626
1.2208424477
1.2211181633
1.2201693426
1.2208329063
1.2147904426
1.2020590985
1.2202531626
1.2156852050
1.2142011108
1.2172020031
1.2124919316
1.2172870105
1.1970026910
1.2209224797
1.2214357350
1.2184210521
1.2223606099
1.2202480803
1.2213130979
1.2195142176
1.1948925625
1.2133589856
1.2213118938
1.2071605678
1.2134653531
1.2138369151
1.2232040515
1.2227781089
1.2172049927
1.2197715105
1.2226961922
1.2202179946
1.2217678373
1.2231573072
1.1961040984
1.2107958908
1.2186160446
1.2189743932
1.2218024940
1.2159128833
1.2228598738
1.2199829294
1.2213525645
1.2199453831
1.2145347022
1.2154427383
1.2169709757
1.2203056510
1.1980477128
1.2208748096
1.2217548957
1.2204193459
1.2157262383
1.2005751742
1.2207469839
1.2167088949
1.2128643199
1.2128626640
1.2183871565
1.1966599128
1.2212162192
1.2217098121
1.2190895939
1.2218892808
1.2206954513
1.2188564840
1.1946325676
1.2145655833
1.2184369056
1.2208355640
1.2053798918
1.2124943449
1.2229039816
1.2224907695
1.2179832068
1.2190319895
1.2223899533
1.2194738672
1.2216288857
1.2235038597
1.1953880954
1.2089777020
1.2176535750
1.2196245329
1.1996947836
1.2178919111
1.2232384094
1.2241536135
1.2196138669
1.2036692891
1.1970731928
1.2184669937
1.1983876896
1.2183726057
1.2176243639
1.2151702804
1.2095821535
1.2247058893
1.1968334256
1.1969410555
1.1976119422
1.2190679064
1.2002099566
1.2024710755
1.2242632761
1.2192708918
1.1968969935
1.2208825119
1.2233964660
1.2031052276
1.1979551192
1.2087497740
1.2087507338
1.2058110094
1.2128780463
1.2170653933
1.2239959042
1.2038327069
1.2079464879
1.1958700383
1.1972167920
1.2130371217
1.2176722807
1.1967502015
1.1965956182
1.2094421657
1.1966570702
1.2213373078
1.1985654231
1.2185891173
1.2238138492
1.2237500831
1.2194017703
1.1974043328
1.2178313740
1.1974340159
1.2175245113
1.2140666775
1.2079470509
1.2246507270
1.1962443979
1.1974290101
1.1972566170
1.2193367268
1.1997289605
1.2010004383
1.2245680194
1.2189543569
1.1967485269
1.2217644080
1.2228601240
1.2020222130
1.1987941054
1.2071046270
1.2014276660
1.2040842172
1.2116126549
1.2161754628
1.2242367114
1.2020296479
1.1957270110
1.1976210695
1.1979398410
1.2112629389
1.2188393449
1.1971731590
1.1968984040
1.2076105336
1.2206301775
1.2092923626
1.1968310122
1.2024710922
1.2147913546
1.1958665864
1.2211210745
1.2141438825
1.2112670755
1.2041775958
1.2158028643
1.1956273566
1.1969978276
1.1997604469
1.2225206790
1.2034166953
1.2180482923
1.1961844613
1.2076130228
1.2053083521
1.2180507965
1.2181451875
1.2172886290
1.1977855938
1.2209165090
1.2203587503
1.2143616310
1.2138054859
1.2225275227
1.2012617222
1.2003948479
1.2224127242
1.2206730798
1.2128761830
1.1955392174
1.2150258109
1.1973230028
1.2193957591
1.2193445470
1.2131645107
1.2118982058
1.2219623455
1.2117020381
1.1930703351
1.2204839356
1.2232946891
1.2151328767
1.2213576345
1.2235379192
1.2088524919
1.1959356633
1.2213614931
1.2222785260
1.1996948287
1.2082985365
1.2199198278
1.1982711322
1.1976108034
1.2217478644
1.2075058714
1.1962412352
1.2010003992
1.2133786346
1.1957234706
1.2203081685
1.2131656140
1.2191863613
1.2094454288
1.2054513220
1.2166920752
1.1970898021
1.1970660009
1.2011573994
1.2018114236
1.1958272022
1.2058124492
1.2033175878
1.2163285157
1.2188447368
1.2160914488
1.1954600510
1.2213939838
1.2223968189
1.2227035450
1.1990440926
1.1992069362
1.2218264992
1.2112594978
1.1950664740
1.1971717705
1.2183890082
1.2235316549
1.2133780184
1.2129351273
1.2107011028
1.1944069614
1.2228642590
1.2232857209
1.2069900207
1.1942797123
1.2219097294
1.2231623620
1.1985651643
1.2094476523
1.2206008935
1.1975939834
1.1972544505
1.2199892116
1.2040847464