<VTKFile type="UnstructuredGrid" version="0.1">
	<UnstructuredGrid>
		<Piece NumberOfPoints="1862" NumberOfCells="3498">
			<CellData>
				<DataArray type="Int32" Name="type" NumberOfComponents="1" Format="ascii">
0
0
0
0
0
0
0
0
0
0
0
0
0
0
0
0
1
0
0
1
0
0
0
0
0
0
0
0
0
0
0
0
0
1
0
0
0
0
0
0
0
0
0
0
0
0
0
0
0
0
1
0
0
0
0
0
0
0
0
0
0
1
0
0
0
0
0
0
0
0
0
0
0
0
0
0
0
0
0
0
0
0
0
0
0
0
0
0
0
0
0
0
0
0
0
0
0
0
0
0
0
0
0
0
0
0
0
0
0
0
0
0
0
0
0
0
0
0
0
0
0
0
0
1
0
0
0
0
0
0
0
0
0
0
0
0
0
0
0
0
0
0
0
0
0
0
0
0
0
0
0
1
0
1
1
0
0
0
0
0
0
0
0
0
0
0
0
0
1
0
1
0
0
0
0
1
0
0
0
0
0
0
0
0
1
1
0
0
0
0
0
1
0
0
0
0
0
0
0
0
1
0
0
0
0
0
0
0
0
0
0
0
0
0
0
0
0
0
0
0
0
0
0
0
0
0
0
0
0
0
0
0
0
1
0
0
0
0
0
0
0
0
0
0
0
0
0
0
0
0
0
0
0
0
0
0
0
0
0
0
0
0
0
0
0
0
0
0
0
0
0
0
0
0
0
0
0
0
0
0
0
1
0
0
0
0
0
0
0
0
0
0
0
0
0
0
0
0
0
0
0
0
0
0
0
0
0
0
0
0
0
0
0
0
0
0
0
0
0
0
0
0
0
0
0
0
0
0
0
0
0
0
1
0
0
0
0
0
0
0
0
0
0
0
0
0
0
0
0
0
0
0
0
0
0
0
0
0
0
0
0
0
0
0
0
0
0
0
0
0
0
0
0
0
0
0
0
0
0
0
0
0
0
0
0
0
0
0
0
0
1
0
0
0
0
0
0
0
0
0
0
0
0
0
0
0
0
0
0
0
0
0
0
0
0
0
0
0
0
0
0
0
0
0
0
0
0
0
0
0
0
0
0
0
0
0
0
0
0
0
0
0
0
0
0
0
0
0
0
0
0
0
0
0
0
0
0
0
0
0
0
0
0
0
0
0
0
0
0
0
0
0
0
0
0
0
0
0
0
0
0
0
0
0
0
0
0
0
0
0
0
0
0
0
0
0
0
0
0
0
0
0
0
0
0
0
0
0
0
0
0
0
0
0
0
0
0
0
0
0
0
0
0
1
0
0
0
0
0
0
0
0
0
0
0
0
0
0
0
0
0
0
0
1
0
0
0
0
0
0
0
0
0
0
0
0
0
0
0
0
0
0
0
0
0
0
0
0
0
0
0
0
0
0
0
0
0
0
0
0
0
0
0
0
0
0
0
0
0
0
0
0
0
0
0
0
0
1
0
0
0
0
0
0
0
0
0
0
0
0
0
0
0
0
0
0
0
0
0
0
0
1
0
0
0
0
0
0
0
0
0
0
0
0
0
0
0
0
0
0
0
1
0
0
0
1
0
0
0
0
0
0
0
0
0
0
0
0
0
0
0
0
0
0
0
0
0
0
0
0
0
1
0
0
0
0
0
0
0
1
0
0
0
0
0
0
0
0
0
0
0
0
0
0
0
0
0
0
0
0
0
0
0
0
0
0
1
0
0
0
0
0
0
0
1
0
0
0
0
0
0
1
0
0
0
0
0
0
0
0
0
0
0
0
0
0
0
0
0
0
0
0
0
0
0
0
0
0
0
0
0
0
0
0
0
0
0
0
0
0
1
0
0
0
0
0
1
0
0
0
0
0
0
0
1
0
0
0
0
0
0
0
0
0
0
0
0
0
1
0
0
0
0
0
0
0
0
0
0
0
0
0
0
0
0
0
0
0
0
0
0
0
0
0
0
0
0
0
0
0
0
0
0
0
0
0
0
0
0
0
0
0
0
0
0
0
0
0
0
0
0
0
1
0
0
0
0
0
0
0
0
0
0
0
0
0
0
0
0
0
0
0
1
0
0
0
0
0
0
0
0
0
1
0
0
0
0
0
0
0
0
0
0
0
0
0
0
0
0
0
0
0
0
0
0
0
0
0
0
0
0
0
1
0
1
0
0
0
0
0
0
0
0
0
0
0
0
0
0
0
0
0
0
0
0
0
0
0
0
0
0
0
1
0
0
0
1
0
0
0
0
0
0
0
0
0
0
0
0
0
0
0
0
0
0
0
0
0
0
0
0
0
0
0
0
1
0
0
0
0
0
0
0
0
0
0
0
0
0
0
0
0
0
0
0
0
0
0
0
0
0
1
0
0
0
0
0
0
0
0
0
0
0
0
0
0
0
0
0
0
0
0
0
0
0
1
0
0
0
0
0
0
1
0
0
0
0
0
0
0
0
0
0
0
1
0
0
0
0
0
0
0
0
0
0
0
0
0
0
0
0
0
0
0
0
1
0
0
0
0
0
0
0
0
0
0
0
1
0
0
0
0
0
0
0
0
0
0
0
0
0
0
0
0
0
0
0
0
0
1
0
0
0
0
0
0
0
0
0
1
1
0
1
0
1
0
0
0
0
0
0
0
0
0
0
0
1
0
0
0
0
0
1
1
0
0
0
0
0
0
1
0
0
0
0
0
1
1
1
0
0
0
0
0
0
0
0
0
0
0
0
1
1
0
0
1
0
0
0
0
0
1
0
0
0
1
0
1
0
0
0
0
0
0
0
1
0
0
0
0
0
0
0
1
0
0
1
0
0
0
0
0
0
0
0
0
0
0
0
0
0
0
1
0
0
0
0
0
0
0
0
0
0
0
0
0
0
0
0
0
0
0
0
0
0
0
0
0
0
0
0
0
0
0
0
0
0
0
0
1
0
0
0
0
0
0
1
0
0
0
1
0
0
0
0
0
0
0
0
0
0
0
1
0
0
0
0
0
0
0
0
0
0
0
0
0
0
0
0
0
0
0
0
0
0
0
0
0
0
0
0
0
0
0
0
0
0
0
0
0
0
0
0
1
1
0
0
0
0
0
0
0
0
0
0
0
0
0
1
0
0
0
0
0
0
0
0
0
0
0
0
0
0
0
0
0
0
0
0
0
0
0
0
0
0
0
0
0
0
0
0
0
0
0
0
0
0
0
0
0
0
0
0
0
0
0
0
0
0
0
0
0
0
0
0
0
0
0
0
0
0
0
0
0
0
0
0
0
0
0
0
1
1
0
0
0
0
0
0
0
0
1
0
0
0
0
0
0
0
0
0
0
0
0
0
0
0
0
0
0
0
0
0
0
0
1
0
0
0
0
0
0
0
0
0
0
0
0
0
0
0
0
1
0
0
0
0
0
0
0
0
0
0
0
0
0
0
0
0
0
0
0
0
0
0
0
0
0
0
0
0
0
0
0
0
0
0
0
0
0
0
0
0
0
0
0
0
0
0
0
0
0
0
0
0
0
0
0
0
0
0
0
0
0
0
0
0
0
0
0
0
0
0
0
0
0
0
0
0
0
0
0
0
0
0
0
0
0
0
0
0
0
0
1
1
0
0
0
0
0
1
0
0
0
0
0
0
0
0
0
0
0
0
1
0
0
0
0
0
0
0
0
0
0
0
0
0
0
0
0
0
0
0
0
0
0
0
0
0
0
0
0
0
0
0
0
0
0
0
0
0
0
0
0
0
0
0
0
0
0
0
0
0
0
0
0
0
1
0
1
0
0
0
0
0
0
0
0
0
0
0
0
0
0
0
0
0
0
1
0
0
0
0
0
0
0
0
0
0
0
0
0
0
0
0
0
0
0
0
0
0
0
0
0
0
0
0
0
0
0
0
0
0
0
0
0
0
0
0
0
0
0
0
0
0
0
0
0
0
0
0
0
0
0
0
0
0
0
0
0
0
0
0
0
0
0
0
0
0
1
0
0
0
0
0
0
0
0
0
0
1
0
0
0
0
0
0
0
0
0
0
0
0
0
0
0
0
0
0
0
0
0
0
0
0
0
0
0
0
0
0
0
0
0
0
0
0
0
1
0
0
0
0
0
0
0
0
0
0
0
0
0
0
0
0
0
0
0
0
0
0
0
0
0
0
0
0
0
0
0
0
0
0
0
0
0
0
0
0
0
0
0
0
0
0
0
0
0
0
0
0
0
0
0
0
0
0
0
0
0
0
0
0
0
0
0
0
0
0
0
0
0
0
0
0
0
0
0
0
0
1
0
0
0
0
0
0
0
0
0
0
0
0
0
0
0
0
0
0
0
0
0
0
0
0
0
0
0
0
0
0
0
0
0
0
0
0
0
0
0
0
0
0
0
0
0
0
0
0
0
0
0
0
0
0
0
0
0
0
0
0
0
0
0
0
0
0
0
0
0
0
0
0
0
0
0
0
0
0
0
0
0
0
0
0
0
0
0
0
0
0
0
0
0
0
0
0
0
0
0
0
0
0
0
0
0
0
0
0
0
0
0
0
0
0
0
0
0
0
0
0
0
0
0
1
0
0
0
0
0
0
0
0
0
0
0
0
0
0
0
0
0
0
0
0
0
0
0
0
0
0
0
0
0
0
0
0
0
0
0
0
0
0
0
0
0
0
0
0
0
0
0
0
0
0
0
0
0
0
0
0
0
0
0
0
0
0
0
0
0
0
0
0
0
0
0
0
0
0
0
0
0
0
0
0
0
1
0
0
0
0
0
0
0
1
0
0
0
0
0
0
0
0
0
0
0
0
0
0
0
0
0
0
0
0
0
0
0
0
0
0
0
0
0
0
0
0
0
0
0
0
0
1
0
0
0
0
0
0
0
0
0
0
0
0
0
0
0
0
0
0
0
0
0
1
0
0
0
0
0
0
0
0
0
0
0
0
1
1
0
0
0
0
0
0
0
0
0
0
0
0
0
0
0
1
1
0
1
0
0
0
0
0
0
0
0
0
1
0
0
0
0
0
0
1
0
0
0
0
0
0
0
0
0
0
1
0
0
0
0
1
0
1
0
0
0
0
0
0
0
1
0
0
0
1
0
0
0
1
0
1
1
0
0
1
1
0
0
0
1
0
0
0
1
0
0
0
0
0
0
0
0
0
1
0
0
0
0
0
0
1
0
0
0
0
0
0
0
0
0
0
0
0
0
0
0
0
0
0
0
0
0
0
0
0
0
0
0
1
0
0
1
0
0
0
0
0
0
0
0
0
0
0
0
0
0
0
0
0
0
1
0
0
1
0
0
0
0
0
0
0
0
0
0
0
1
0
0
1
0
0
0
0
0
0
0
0
0
0
0
1
1
0
0
0
0
0
0
0
0
0
0
0
0
1
0
0
0
0
0
0
0
0
0
0
0
0
0
0
0
0
0
1
0
0
0
0
0
0
0
0
0
0
0
0
0
0
0
0
0
1
0
0
0
0
0
0
0
0
0
0
0
0
0
0
0
0
0
0
0
0
0
0
0
0
0
0
0
0
0
0
0
0
0
0
0
0
0
0
0
0
1
0
0
0
0
0
0
0
0
0
0
0
0
0
0
0
0
0
0
0
0
0
0
0
0
0
0
0
0
0
0
0
0
0
0
0
0
0
0
0
0
0
0
0
0
0
1
0
0
0
0
0
0
0
0
0
0
0
0
0
0
0
0
0
0
0
0
0
0
0
0
0
0
0
0
0
0
0
0
0
0
0
0
0
0
0
0
0
0
0
0
0
0
0
1
0
0
0
0
0
0
0
0
0
0
1
0
0
0
0
0
0
0
0
0
0
0
0
0
0
0
1
0
0
1
0
0
0
0
0
0
0
0
0
0
0
0
0
0
0
0
0
0
0
0
0
0
0
1
0
0
0
0
0
0
0
0
0
0
0
0
0
0
0
0
0
0
0
0
0
0
0
0
0
0
0
0
0
0
0
0
0
0
0
1
0
0
0
0
0
0
0
0
0
0
0
0
0
0
0
0
0
0
0
0
0
0
0
0
0
0
0
0
0
0
0
0
0
0
0
0
0
0
0
0
0
0
0
0
0
0
0
0
0
0
0
0
0
0
0
0
0
0
0
0
0
0
0
0
0
0
0
0
0
0
0
0
0
0
0
0
1
0
0
0
0
0
0
0
0
0
0
0
0
0
0
0
0
0
0
0
0
0
0
0
0
0
0
0
0
0
0
0
0
0
0
0
0
0
0
0
1
0
0
0
0
0
0
0
0
0
0
0
0
1
1
0
0
0
0
0
0
0
0
0
0
0
0
0
0
0
0
0
0
0
0
0
0
0
0
0
0
0
0
0
0
0
0
0
0
0
0
0
0
0
0
0
0
0
0
0
0
0
0
0
0
0
0
0
0
0
0
0
0
0
0
0
0
0
0
0
0
0
0
0
0
0
0
0
0
0
0
0
0
0
0
0
0
0
0
0
0
0
0
0
0
0
0
0
0
0
0
0
0
0
0
0
1
0
1
0
0
0
0
0
0
0
1
1
1
1
0
0
0
0
0
0
0
0
0
0
0
0
0
0
0
0
0
0
0
0
0
0
0
0
0
0
0
0
1
1
0
0
0
0
0
0
0
0
0
0
0
0
0
0
0
0
0
0
1
0
0
0
0
0
0
0
1
1
0
1
1
0
0
1
0
0
0
0
0
0
0
1
0
1
0
0
0
0
0
0
0
0
0
0
0
0
0
0
0
0
0
0
0
0
0
0
0
0
0
0
0
1
1
0
0
0
1
1
0
0
0
0
1
0
0
1
0
1
0
0
0
0
0
1
0
0
0
1
0
0
0
0
0
0
0
0
0
0
0
0
0
0
0
0
0
0
0
0
0
0
0
0
0
0
0
1
0
0
0
0
0
0
1
0
0
0
0
0
0
0
0
0
0
0
0
0
0
0
0
0
0
0
0
0
0
0
0
0
0
0
0
0
1
0
1
0
0
0
0
0
0
0
1
0
0
0
0
0
0
0
0
0
0
0
1
0
0
0
0
0
0
0
0
0
1
0
0
0
0
0
0
0
1
0
0
0
0
0
0
0
1
0
0
0
0
0
0
0
0
0
0
0
0
0
0
0
0
0
0
0
1
0
1
0
0
0
0
0
1
0
0
0
0
0
0
0
0
0
0
0
0
0
0
0
0
0
0
0
0
0
0
0
0
0
1
0
1
0
0
0
0
0
0
0
0
0
1
0
0
0
0
0
1
0
0
0
0
0
0
0
0
0
0
0
0
0
0
0
1
0
0
0
0
0
0
0
0
1
0
0
0
0
0
0
0
0
0
0
0
0
0
0
0
0
0
0
0
0
0
0
0
0
0
0
0
0
0
0
1
0
0
0
0
0
0
0
0
0
0
0
0
0
0
0
0
1
0
0
0
0
0
0
0
0
1
0
0
0
0
0
0
0
0
0
1
0
0
0
0
0
1
0
0
0
0
0
0
0
0
0
0
0
0
0
0
0
0
0
0
0
1
0
0
0
0
0
0
1
0
0
0
0
0
0
0
0
1
0
0
0
0
0
0
0
0
0
0
0
0
0
0
1
0
0
1
0
0
0
1
0
0
0
0
0
0
0
0
0
0
0
0
0
0
0
0
1
0
0
0
0
0
0
0
0
0
0
1
0
1
0
0
0
0
0
0
1
0
0
0
0
0
0
0
0
0
0
0
0
0
0
0
0
0
0
0
0
0
0
0
0
0
0
0
1
1
0
0
0
0
0
0
1
0
0
0
0
0
0
0
0
0
0
0
0
0
1
0
0
0
0
0
0
0
1
0
0
0
0
0
0
0
0
0
0
0
0
0
0
0
0
0
0
0
0
0
0
0
0
0
0
0
1
0
0
0
0
0
0
0
0
0
0
1
0
0
1
0
0
0
0
0
0
0
0
0
0
0
0
0
0
0
0
0
0
0
0
0
0
0
0
0
0
0
0
0
1
0
0
0
0
0
0
0
1
0
0
0
0
0
0
0
1
0
0
0
0
1
0
0
0
0
0
0
0
0
0
0
0
1
0
1
0
0
0
1
0
				</DataArray>
				<DataArray type="Float64" Name="h" NumberOfComponents="1" Format="ascii">
1.1068896516
1.1068657258
1.1154437024
1.1094982124
1.1163815848
1.1144884971
1.1120293782
1.1060606401
1.1102331635
1.1026763108
1.1078802053
1.1132763080
1.1034635311
1.1061063932
1.1056314499
1.0978388153
1.1111852291
1.1018812141
1.1058872582
1.1076441848
1.1183165991
1.1021711205
1.1101801942
1.1199196856
1.1094438425
1.0958914051
1.1040696720
1.1285393078
1.1155837558
1.1047932658
1.1063326973
1.1117129179
1.1002727237
1.1156885090
1.1333975977
1.1215348497
1.1248829098
1.1099940808
1.1279284295
1.1208579410
1.1171607170
1.1315017013
1.1060838497
1.1163448440
1.1229201697
1.1242959990
1.1118843448
1.1384100346
1.1751762462
1.1697244985
1.1215625482
1.1229036806
1.1181307666
1.1508256570
1.1297431845
1.1053661159
1.1262045495
1.1482924209
1.1525917392
1.1492114792
1.1623094964
1.1574294451
1.1742653697
1.1245778196
1.1190576267
1.1376554394
1.1645247979
1.1684929955
1.1576266715
1.1523130633
1.1535338033
1.1314271802
1.1094230508
1.1556458913
1.1543089677
1.1308294534
1.1491512962
1.1621779465
1.1434594038
1.1305391267
1.1713223557
1.1425774428
1.1859919098
1.1628908893
1.1233799139
1.1377395934
1.1747981181
1.1573813983
1.1639396921
1.1812563824
1.1755325556
1.1330358113
1.1665062702
1.1762368477
1.1442271107
1.1395255689
1.1516246714
1.1259880237
1.1317546252
1.1746489087
1.1836689966
1.1714379848
1.1505683905
1.1424794818
1.0995017832
1.1598297641
1.1449479605
1.1783237210
1.1609715493
1.1459398677
1.1735163939
1.1786457856
1.1716631843
1.1751408064
1.1566407541
1.1879974378
1.1522968676
1.1015950770
1.1822542739
1.1627063411
1.1003818651
1.1535513597
1.1382726397
1.1014267104
1.1710047270
1.1806576700
1.1584180831
1.1005583525
1.1876097132
1.1884504975
1.1832847741
1.1470088604
1.1646152653
1.1917561667
1.1024729814
1.1813706355
1.0941062643
1.1920115716
1.1795580373
1.0960910297
1.0995076500
1.1021073073
1.1864199902
1.0987617180
1.1404814807
1.1806714476
1.0946325604
1.1947245512
1.1009257364
1.1971540560
1.0934167624
1.1940397612
1.1942313954
1.1994833737
1.1759788787
1.1923586112
1.1972145146
1.0983602948
1.1971159109
1.0995152739
1.0960015948
1.1947106996
1.0929637437
1.0987426428
1.0994668429
1.1905532632
1.1029665835
1.0939349202
1.1004712263
1.1939220612
1.1968704906
1.1004217121
1.1980383357
1.0975466531
1.1044480836
1.1979422570
1.0994125285
1.1935881554
1.1981966105
1.0981071976
1.1904645503
1.1109131443
1.0988777780
1.1407769705
1.1001095376
1.1006985222
1.1087098173
1.1979817579
1.1004322037
1.1017897847
1.1183294866
1.1984932130
1.0999085118
1.1156907505
1.1977281006
1.1923049662
1.0957243715
1.1261687789
1.1232926217
1.1975724798
1.1018683519
1.1448775208
1.1010959731
1.1982470910
1.1338441975
1.0958750539
1.0921491577
1.0919225159
1.1310842269
1.0969994569
1.1153029711
1.1005218689
1.0956089931
1.0966353540
1.0916068123
1.1232656093
1.0938850963
1.0942411038
1.1079311793
1.0982037149
1.1383518191
1.1762890508
1.1017032072
1.1667635003
1.1467078005
1.1956103003
1.1857067630
1.1574928602
1.1406000237
1.1811242830
1.1973048508
1.1714448957
1.1523052681
1.1970939953
1.1931513034
1.1622333824
1.1180753515
1.0893310943
1.0989703425
1.0950289479
1.1148151744
1.0887624349
1.0929611980
1.0978244277
1.0904711268
1.0914914980
1.0945067052
1.1102449445
1.0885541992
1.0910998024
1.0914203166
1.1070031364
1.0926813730
1.1261619610
1.1230335385
1.0937117966
1.0939023790
1.0904179910
1.0966383744
1.1691474513
1.1002688684
1.1458573882
1.1557346427
1.1645520111
1.1500096436
1.1910903209
1.1932172198
1.1380615194
1.1961313833
1.1735724995
1.1826952415
1.1033391377
1.1786019199
1.1599927886
1.1645893704
1.1400191830
1.1510158501
1.1601809038
1.1689938294
1.1443719069
1.1832142184
1.1952173634
1.1939875206
1.1903939869
1.1782015567
1.1738473055
1.1551919574
1.0861213461
1.0913130759
1.0895118560
1.0887181797
1.1177045447
1.0850883111
1.0871497776
1.0928026007
1.1141314593
1.0960410214
1.0850380235
1.0874844534
1.0937144800
1.0902433466
1.0873276792
1.1095168170
1.1225207323
1.1258905762
1.0886483183
1.1059049780
1.0915742640
1.0893251711
1.1446297649
1.1579536847
1.1537796566
1.1938302152
1.1373985957
1.1792533045
1.1666340363
1.0986248436
1.1756193476
1.1901428209
1.1021108112
1.1619854135
1.1487687949
1.1704876431
1.1881011165
1.1494389505
1.1535128943
1.1578982302
1.1912821511
1.1622795790
1.1710870506
1.1800968543
1.1870626126
1.1925033114
1.1390369426
1.1661683293
1.1434951334
1.1748948733
1.0855827811
1.1769521977
1.0902756436
1.1131819353
1.0940350865
1.0875957388
1.1170724769
1.0808371776
1.0824593732
1.0833321266
1.0854968411
1.1673914348
1.1407567769
1.1216888230
1.1534004881
1.0837773828
1.0854503159
1.1684767972
1.0855054749
1.1413031945
1.1045747792
1.0889676449
1.1551378604
1.1602467319
1.1715047034
1.0902451600
1.1085937510
1.1252719737
1.0809932444
1.1317567458
1.1367253088
1.1471281069
1.0861942587
1.1467129900
1.1591992280
1.0832864656
1.1863748049
1.1637650413
1.1591086175
1.1845581315
1.0596692579
1.1753766876
1.1430221843
1.1363630027
1.1722636057
1.1906999572
1.0967341160
1.1670500678
1.1006970843
1.1472064595
1.1556715956
1.1515193579
1.0730184380
1.1889860860
1.1376697038
1.1596878712
1.1188943693
1.1831330791
1.1630060644
1.0477526366
1.0547656817
1.0592925198
1.1011709039
1.1475162961
1.1765729287
1.0912959149
1.1679627787
1.1106472263
1.1879013953
1.1712068497
1.1422524876
1.1515817392
1.0817499205
1.1553181891
1.1368218466
1.1607281024
1.1384225900
1.0820438111
1.1708648824
1.1683494722
1.0917782531
1.1567651329
1.1431139653
1.1302584952
1.1251453850
1.0789290566
1.1638240553
1.1687603936
1.1536031383
1.1792183985
1.0832548173
1.1559134072
1.1161187857
1.1440660191
1.1661340433
1.1496175024
1.1625019313
1.1439843755
1.1502053966
1.1504833270
1.1644995822
1.1758490347
1.1290595647
1.1363025927
1.1402959861
1.0797283657
1.1470997254
1.1330746212
1.0860490387
1.1467987386
1.1365394699
1.1570921525
1.1516620304
1.1459177098
1.1821854588
1.0861948339
1.1387970843
1.1074068959
1.1251511004
1.1607124239
1.1577027184
1.1409792248
1.1582473358
1.0809257979
1.1242894364
1.0780895343
1.1867901307
1.0990487838
1.1605797289
1.1502149763
1.1453068071
1.1070050810
1.0738404516
1.1804547363
1.0892785598
1.1685441651
1.1059462817
1.1349953021
1.1530918159
1.1540021441
1.0767537202
1.0781111656
1.0546466369
1.0521588156
1.1229990399
1.0751282943
1.1838586110
1.1437393242
1.1493102325
1.1726410525
1.0522993817
1.1567948543
1.0486600671
1.1334387302
1.1406611892
1.1521058409
1.0755727305
1.0477505892
1.0654612949
1.0828300401
1.1482655557
1.1644999484
1.0415439184
1.1374066768
1.1442629315
1.0675843295
1.0592900819
1.1011729016
1.0971596603
1.1493388247
1.0814224541
1.1295712254
1.1339119476
1.0523099044
1.1148601699
1.1377753164
1.0892783316
1.1282447873
1.0781100273
1.1425349865
1.1332705189
1.0751348485
1.0843806124
1.1148630806
1.1387303366
1.1346094849
1.1743956566
1.0735649412
1.1477218492
1.0173832927
1.1383411041
1.1231827360
1.1105570605
1.1487183302
1.0780869458
1.1433428122
1.0700919537
1.0738403207
1.0994282357
1.0755722055
1.0828279118
1.0814218034
1.1231834051
1.1230020152
1.0891982399
1.0517936339
1.0785654769
1.0693695793
1.0780542820
1.0317632295
1.1059486245
1.0790655283
1.0440431876
1.1608755973
1.0602534231
1.0709559832
1.1175239371
1.0724334785
1.1240553239
1.1192653249
1.0370063848
1.1546889326
1.1606531265
1.1012588881
1.0307371292
1.1577081410
1.0751269818
1.1091196396
1.1645113503
1.0971603234
1.1502186993
1.1348123330
1.1821785003
1.0922838370
1.1349125236
1.1418411899
1.1362417436
1.1431162464
1.0682443477
1.1334059288
1.1312937247
1.1377787864
1.0995241336
1.0740469955
1.1571044729
1.1374097891
0.9955038529
1.1328484729
1.0633583724
1.1758466606
1.1607421276
1.1468004692
1.0286948563
1.1792151341
1.0960997510
1.0594825426
1.1088580067
1.0395752188
1.1388008772
1.1091308087
1.0721898720
1.1520066130
1.0866825832
1.1159818954
1.0900097044
1.1517434838
1.0685068525
1.1536111947
1.0509014929
1.0788052495
1.1454046404
1.1683558707
0.9831080816
1.0692787990
1.0635733820
1.1430338603
1.0148882419
1.1312947916
1.0649275188
1.1340871858
1.0700928569
1.0922875855
1.1105610556
1.0735638424
1.1633463314
1.1285721795
1.0652833012
1.0751348052
1.0813379161
1.0225292557
1.1407906424
1.0724337916
1.0458719264
1.0788036988
1.0309252604
1.0533839654
1.1192669471
1.0843838179
1.1012638083
1.0709560506
1.1370447304
1.1427427432
1.1359022771
1.1335772488
1.0785651734
1.0696004261
1.0888055102
1.1026460169
1.1539678278
1.1407249655
1.1175248250
1.0600755382
1.1477255730
1.0500334176
1.0760201456
1.0642293376
1.0615155847
1.0675019904
1.0930841215
1.1119342064
1.0780533914
1.1355676868
1.0694532336
1.0685755759
1.0604710865
1.1347938520
1.1388392248
1.1445824089
1.1345115060
1.0146667250
1.0840213315
1.0614097909
1.0645460672
1.1474261708
1.1477748584
1.0994240894
1.0612157093
1.0888821772
1.0384925149
1.1363172159
1.0405915862
1.0458379246
1.1446445358
1.1422695189
1.0757427638
1.0657145506
1.1372313606
1.0568222016
1.0522750593
1.0437388957
1.1389116905
1.1438749975
1.1404702675
1.0471660446
1.0370031308
1.0388204739
1.0254841230
1.0349015987
1.1388025749
1.1399734940
1.1374350525
1.1379173193
1.0645269924
1.1412841436
1.1425947881
1.0137946480
1.1427388389
1.1413955532
0.9831619986
1.1435810410
1.0602561176
1.1429873859
1.0281433628
1.0372868691
1.1437760637
1.0149408673
1.1430004525
1.1458799582
1.0307193266
1.1462504295
1.0120922903
0.9792792920
1.1455553046
1.1490338980
1.0402614716
1.1098595103
1.1114623693
1.1114391417
1.1098291627
1.1114051202
1.1132827901
1.1078873526
1.1077292970
1.1149091360
1.1145019054
1.1163633405
1.1148852706
1.1102184566
1.1056456085
1.1120427400
1.1042144714
1.1077187724
1.1113959217
1.1033952687
1.1018866990
1.1094908758
1.1154327079
1.1059164165
1.1047972521
1.0997895407
1.1133219470
1.1060494187
1.0958917814
1.1094480049
1.1026718454
1.1018145018
1.1034446139
1.1179195047
1.0979055700
1.1067553156
1.1042090092
1.1063359983
1.1033826838
1.1156902385
1.1002939423
1.1117567646
1.1008591896
1.1208703227
1.1236970090
1.1111825654
1.0978305669
1.1061275577
1.1279917354
1.1133170802
1.0997827610
1.1171927980
1.1061014676
1.1076415908
1.1179093296
1.1101289182
1.1402418723
1.1021472949
1.1245150486
1.1017959093
1.1183091785
1.1067153018
1.1050209545
1.1338132938
1.1384150314
1.0978940547
1.1229397380
1.1215654557
1.1119452387
1.1284743106
1.1199024173
1.1155399081
1.1262562504
1.1194193772
1.1040287792
1.1289045667
1.1001516355
1.1236331804
1.1332497701
1.1330855370
1.1008337736
1.1181862404
1.1402340530
1.1729258880
1.1705416246
1.1049813568
1.1245044191
1.1278632749
1.1337737350
1.1215059353
1.1191298638
1.1099335321
1.1371897335
1.1333857124
1.1742546080
1.1684757172
1.1353201227
1.1248747223
1.1246079625
1.1332318302
1.1455509658
1.1480544929
1.1162777349
1.1556365039
1.1474589891
1.1314406377
1.1094759841
1.1528671068
1.1162035037
1.1170076820
1.1288923339
1.1621691728
1.1330762249
1.1314724366
1.1491551502
1.1535330251
1.1573940797
1.1543020685
1.1193524429
1.1118752078
1.1576259594
1.1289746415
1.1001470596
1.1523183415
1.1278471901
1.1371773854
1.1362618883
1.1352871120
1.1647266922
1.1405769081
1.1676960207
1.1751834137
1.1228597127
1.1705518798
1.1242301574
1.1425929845
1.1628699450
1.1405700947
1.1729426265
1.1697419691
1.1623023604
1.1574176282
1.1118150099
1.1666903024
1.1574020259
1.1525914613
1.1458660154
1.1474582690
1.1260168506
1.1115103057
1.1455453969
1.1289668637
1.1386456924
1.1297187091
1.1574503222
1.1528630310
1.1621610015
1.1053203071
1.1442095414
1.1558806555
1.1161490143
1.1508193965
1.1480526222
1.1492090304
1.1330633556
1.1482861728
1.1169371204
1.1665054940
1.1647396485
1.1424876773
1.1318042154
1.1405601917
1.1186607074
1.1405696872
1.1714457376
1.1630264346
1.1701474321
1.1591329698
1.1376136153
1.1836873227
1.1645487357
1.1379003744
1.1260380239
1.1671663309
1.1395502401
1.1422475075
1.1677239283
1.1746530146
1.1598035780
1.1362217517
1.1883198687
1.1441948242
1.1609664839
1.1786469305
1.1666875072
1.1558827686
1.1716619561
1.1386377562
1.1308025432
1.1712180347
1.1458634685
1.1621782972
1.1114581752
1.1772527583
1.1259856054
1.1734975802
1.1459549501
1.1574490042
1.1701442332
1.1882944698
1.1491178407
1.1671576940
1.1377165664
1.1535443843
1.1621895132
1.1378911071
1.0985499289
1.1422411195
1.1591440445
1.1233358609
1.1304941179
1.1747921453
1.1859642870
1.1713126955
1.1522998384
1.1434506351
1.1630579185
1.1003810216
1.1573977702
1.1186141231
1.1772467153
1.1470109945
1.1684880293
1.0969229103
1.1806639339
1.1689593257
1.1772803950
1.1639437531
1.1442131702
1.1762464331
1.1857152101
1.1812434057
1.1755278930
1.1800886362
1.1475030854
1.1709939437
1.1584099464
1.1712491885
1.1884653931
1.1505644453
1.1859336756
1.1664207194
1.1491121391
1.0985505211
1.1621988702
1.1764422049
1.1024740191
1.1813768798
1.1646015799
1.0995015787
1.1516343413
1.1404890524
1.1638833594
1.1021078116
1.1689162647
1.0969239242
1.1857002607
1.1751440147
1.1783218211
1.0959973674
1.1474955936
1.1772782845
1.1566459900
1.1009250829
1.1685194102
1.1864317965
1.1009175880
1.1879806921
1.1689615580
1.1806785817
1.1800842773
1.1449456727
1.1017076942
1.1336187451
1.1619690955
1.1953143093
1.1859165281
1.1764488858
1.0947054550
1.1907069840
1.1836163981
1.1789011654
1.1627182113
1.1664630144
1.1940506909
1.1015939370
1.1817902440
1.1822447913
1.1035031590
1.0934120997
1.1942465952
1.1759860643
1.0959976033
1.1009179685
1.0939372737
1.0994653265
1.1689269838
1.1963274010
1.1017077559
1.1000880981
1.1956339938
1.1594347678
1.1639193852
1.1014266483
1.1875975284
1.0960127729
1.1001822369
1.1382600482
1.1832750812
1.1039102015
1.0929609719
1.1853557495
1.1947302613
1.1005590382
1.1971316459
1.1788932523
1.0941093606
1.1917449127
1.1947742884
1.1567392127
1.1835990338
1.1913918369
1.1919955908
1.1980523051
1.1049030099
1.0961736996
1.1795489879
1.1035016287
1.1620094129
1.0947088721
1.1953005472
1.1336021263
1.1817820412
1.1939409766
1.1863985279
1.1906936076
1.1968837772
1.0975447080
1.1971384000
1.0988758777
1.1534161405
1.1001831720
1.1000891178
1.1883743644
1.1966386240
1.1980505401
1.0987385232
1.1947044226
1.0946294820
1.0981053118
1.1956144365
1.1039084611
1.1594624319
1.0979361805
1.0995087712
1.1904861787
1.1853454309
1.0994340588
1.1834887597
1.0960797485
1.1963104032
1.0996117160
1.1004312247
1.1923386852
1.1972003422
1.0961748540
1.1509496719
1.1947574411
1.1028659323
1.1049017177
1.1567669048
1.1001080238
1.1913733412
1.1994707957
1.0983617019
1.1863900732
1.1087481300
1.1471583966
1.1977409384
1.1029309547
1.0996131099
1.1883514647
1.1923320911
1.0979376120
1.1980369757
1.1834802931
1.1925885228
1.1001295601
1.1966227465
1.1534294149
1.0998639403
1.1985067088
1.1895933545
1.0987439667
1.1905297745
1.1157237429
1.1954096206
1.0995166911
1.1448764772
1.1982936070
1.1004230020
1.1010940005
1.1044129851
1.1982601509
1.1509615130
1.1004718164
1.1018662227
1.1028652097
1.1233150783
1.1980951539
1.1981836319
1.0971080253
1.1001310669
1.0998650721
1.1005201043
1.1953902210
1.1925637773
1.0968776474
1.1902005030
1.1108765432
1.1895843592
1.1979298919
1.1471608775
1.1006640427
1.1010735903
1.1935612150
1.0956073819
1.1310953057
1.1183008601
1.1973198805
1.1982812661
1.1017919160
1.1980818844
1.1974159445
1.1980978032
1.1407699742
1.1007002427
1.1979680979
1.1383534201
1.0945046224
1.0914944762
1.0942944261
1.0904687408
1.1261516318
1.1010758257
1.1311172339
1.0991737307
1.0978380198
1.0928521827
1.0971096445
1.1180802461
1.0999104326
1.0997198537
1.1901696690
1.0957262045
1.0977304663
1.0904171143
1.0912876431
1.1261608585
1.0939109632
1.0926798076
1.1102566500
1.1006664257
1.0989670209
1.0968795327
1.1960502326
1.1337206014
1.1338384684
1.1974003502
1.1738209213
1.1033543837
1.1980844014
1.1645411106
1.1443718215
1.1940126760
1.1832351658
1.1897934463
1.1551693352
1.1380586095
1.1786007832
1.1975565185
1.1691030528
1.1500027610
1.1961515675
1.1874846339
1.1911218437
1.1599536867
1.1152841811
1.0887204175
1.0896522574
1.0982058558
1.0960476413
1.1177006684
1.0928543119
1.1311124628
1.0942963587
1.0971551095
1.1308241077
1.0871485408
1.0913115564
1.0991756092
1.0969821213
1.0919244635
1.0921452235
1.0958770572
1.1079082707
1.0873275558
1.0893244211
1.0997225922
1.0915793441
1.1095177586
1.0942426038
1.1232531625
1.1258831061
1.0878867270
1.0951254235
1.0938747300
1.0912891604
1.0916071011
1.0977331986
1.1714758991
1.1021159827
1.1332228050
1.1434943411
1.1535000329
1.1622367932
1.1523160935
1.1874527063
1.1931239741
1.1913086884
1.1405999680
1.1970780811
1.1868308545
1.1710515368
1.1801051914
1.1016810839
1.1960303287
1.1811109397
1.1622721759
1.1668053285
1.1373909131
1.1487669740
1.1579244316
1.1665880862
1.1467083678
1.1856775120
1.1897606157
1.1938538628
1.1337222410
1.1955916506
1.1881301449
1.1756048165
1.1843489397
1.1762988332
1.1575190710
1.0855834374
1.0859690914
1.0929623655
1.0971569145
1.0875948148
1.0893272824
1.1148067224
1.1301797786
1.0833312224
1.1308254046
1.0887626899
1.0940352060
1.1170622181
1.0950173886
1.0896528148
1.0837771228
1.0854500091
1.0951281525
1.0919458611
1.0885531790
1.1069909524
1.1252600696
1.0839674056
1.1230296658
1.0878871364
1.0889688775
1.1085868046
1.0914125024
1.0911001429
1.1422483157
1.1602163628
1.1515760502
1.1951971574
1.1400219967
1.1765704572
1.1690339732
1.1006941107
1.1782016840
1.1843247609
1.1833751247
1.1879226350
1.1323330712
1.1002554602
1.1596576617
1.1510218783
1.1679292370
1.1903641635
1.1472055825
1.1557548172
1.1556541765
1.1931942604
1.1332291272
1.1807444769
1.1645960213
1.1735958790
1.1826748983
1.1845778356
1.1907223892
1.1363516643
1.1637279893
1.1458575089
1.1722433840
1.1868001049
1.1708610153
1.1440624274
1.1291899292
1.1567561109
1.0861183915
1.0859687620
1.1741045221
1.1651917295
1.0917766385
1.1401694014
1.1161112022
1.0927958179
1.1519260510
1.1638164452
1.1715953812
1.0895120285
1.1141307310
1.1301864368
1.0789288786
1.0820441546
1.0850877569
1.1368172823
1.1323163053
1.1502003562
1.0832545749
1.1459578976
1.1584580687
1.0816784221
1.1701751363
1.1427522105
1.1242817277
1.1558070367
1.0850367509
1.0874836311
1.1770049017
1.1657187321
1.0860492126
1.1431261227
1.1074007256
1.0886431146
1.1526907653
1.1628854062
1.1743925962
1.0919481794
1.1059007468
1.1225237716
1.0794108567
1.0797281507
1.0839672725
1.1341411113
1.1349026322
1.1492596118
1.0881969671
1.1488641144
1.1618277610
1.0809259870
1.0786709998
1.1838705040
1.1310833226
1.1662069021
1.1097016780
1.1794092740
1.1567775141
1.1870375855
1.0546499533
1.0488301194
1.0585820537
1.1726341251
1.0486547694
1.0899636889
1.1406553407
1.1807320319
1.1390421201
1.0980278815
1.1749059504
1.1168020879
1.1924808929
1.0990448183
1.1644755720
1.0986183082
1.1494408894
1.1579240946
1.0707102126
1.1493361024
1.0675887907
1.1868061997
1.1349854308
1.1620223036
1.1159688671
1.1804637899
1.1605558031
1.1833545683
1.0595579153
1.0539409180
1.0478685485
1.1766680881
1.0527411502
1.0969615909
1.1453046279
1.1792457106
1.1323418172
1.0866772495
1.1705165076
1.1070006079
1.1901195872
1.1685264770
1.1446302834
1.1537914005
1.0767544295
1.1530831780
1.1389229355
1.1498996278
1.1632954136
1.1749746800
1.1332668515
1.1401717568
1.1387259760
1.1397308065
1.0824568896
1.1736887783
1.1444213804
1.1711068538
1.1736877729
1.1295438430
1.0902718368
1.1592986206
1.1452573057
1.1323194789
1.1460874460
1.1279647670
1.1356032542
1.0808358417
1.1665470891
1.1715958386
1.1559216910
1.1546832292
1.1592884030
1.1487132800
1.1819417694
1.0854960296
1.1359915522
1.1584636897
1.1131841577
1.1317615347
1.1302540658
1.1608708564
1.1606478793
1.1460898009
1.1433383388
1.1634348869
1.1519314058
1.1651946865
1.1555259894
1.0816778278
1.1291966047
1.1459605419
1.1524758452
1.1687572465
1.1407588711
1.1527304357
1.1671769403
1.1559070884
1.1786381416
1.1307341408
1.1367303568
1.1377128146
1.1419520414
1.0809916902
1.1741033027
1.1450310878
1.1721767304
1.1320383622
1.0855017999
1.1602540020
1.1489339851
1.1264754617
1.1264702884
1.1376867595
1.0794105366
1.1673937422
1.1684807628
1.1595355009
1.1540618696
1.1480612089
1.1847105960
1.0881984698
1.1410789735
1.1439802684
1.1551447852
1.1045744837
1.1279695334
1.1633417576
1.1602281094
1.1471302743
1.1427061195
1.1659652064
1.1488696749
1.1618351040
1.1559145700
1.0832845951
1.1216935479
1.1431310088
1.1534066061
1.0782770727
1.1889658966
1.1430290414
1.1517376569
1.1766647337
1.0967315867
1.0521537039
1.1630350350
1.0527472808
1.1349105089
1.1524224324
1.1475165333
1.1106488590
1.1520002491
1.0766421979
1.0488253139
1.0758853508
1.1831182428
1.0622933584
1.0874407502
1.1477196345
1.1712212531
1.0455753501
1.1368114744
1.1467900894
1.0786767884
1.0547624362
1.1078939228
1.1078948827
1.1030008400
1.1376754491
1.1553328757
1.1560874999
1.0817422745
1.1000871408
1.0807800158
1.0596601482
1.1333975664
1.1330525968
1.0459715035
1.0439247952
1.1205648071
1.0426347115
1.1396472594
1.0763227516
1.1863570278
1.1453990036
1.1513019263
1.1753780864
1.0551885248
1.1591332008
1.0478682869
1.1340248296
1.1430238241
1.1000895157
1.1539617192
1.0783419878
1.0539369037
1.0740682840
1.1794006852
1.0594813389
1.0819561532
1.1499240308
1.1670751646
1.0459621182
1.1386091540
1.1461690342
1.0730044950
1.0585790667
1.0969675802
1.0703862771
1.0945924993
1.1310900224
1.1515242587
1.1560259159
1.0707091543
1.0837998766
1.0595476590
1.0557610679
1.1279203747
1.1342258267
1.0565617373
1.0455808504
1.1119590506
1.1390738058
1.1064476931
1.0766418691
1.0874390373
1.1295445385
1.0807789379
1.1444256899
1.1290607445
1.1279259587
1.0787651985
1.1347083679
1.0414554227
1.0718889030
1.0596256563
1.1632371542
1.0866084522
1.1402527908
1.0350180179
1.1119627353
1.0859400688
1.1402570804
1.1492632132
1.1356060388
1.0485155445
1.1665413026
1.1770038441
1.1282445816
1.1341464589
1.1632424176
1.0659937862
1.0737926176
1.1499045630
1.1628944449
1.1226925829
1.0279497136
1.1389193936
1.0706741165
1.1397345583
1.1467164191
1.1252770206
1.1173627711
1.1624965690
1.1265127662
1.0231564093
1.1769495570
1.1532461939
1.1349071827
1.1510075290
1.1584390814
1.1134036222
1.0355894729
1.1510129357
1.1571600983
1.0782750107
1.0991126667
1.1452898091
1.0680093188
1.0758853988
1.1592041948
1.0961372465
1.0783408475
1.0819531087
1.1244640074
1.0838002424
1.1419569191
1.1252784305
1.1383368967
1.1205690097
1.0857622460
1.1363054886
1.0466420839
1.0756715287
1.0657020448
1.0793927979
1.0212613994
1.1030027465
1.0755795345
1.1384178508
1.1409829877
1.1330783560
1.0373050094
1.1715055239
1.1477161822
1.1634394449
1.0560915626
1.0699852772
1.1471046003
1.1152331734
1.0093539111
1.0691527580
1.1376914124
1.1584343090
1.1244633079
1.1225387003
1.1215426899
1.0281323192
1.1527366816
1.1582516934
1.1042925414
1.0197820742
1.1516669198
1.1555310361
1.0763223238
1.1061908987
1.1459216076
1.0677821226
1.0740684612
1.1671895570
1.0945924566