<VTKFile type="UnstructuredGrid" version="0.1">
	<UnstructuredGrid>
		<Piece NumberOfPoints="1862" NumberOfCells="3498">
			<CellData>
				<DataArray type="Int32" Name="type" NumberOfComponents="1" Format="ascii">
0
0
0
0
0
0
0
0
0
0
0
0
0
0
0
0
1
0
0
1
0
0
0
0
0
0
0
0
0
0
0
0
0
1
0
0
0
0
0
0
0
0
0
0
0
0
0
0
0
0
1
0
0
0
0
0
0
0
0
0
0
1
0
0
0
0
0
0
0
0
0
0
0
0
0
0
0
0
0
0
0
0
0
0
0
0
0
0
0
0
0
0
0
0
0
0
0
0
0
0
0
0
0
0
0
0
0
0
0
0
0
0
0
0
0
0
0
0
0
0
0
0
0
1
0
0
0
0
0
0
0
0
0
0
0
0
0
0
0
0
0
0
0
0
0
0
0
0
0
0
0
1
0
1
1
0
0
0
0
0
0
0
0
0
0
0
0
0
1
0
1
0
0
0
0
1
0
0
0
0
0
0
0
0
1
1
0
0
0
0
0
1
0
0
0
0
0
0
0
0
1
0
0
0
0
0
0
0
0
0
0
0
0
0
0
0
0
0
0
0
0
0
0
0
0
0
0
0
0
0
0
0
0
1
0
0
0
0
0
0
0
0
0
0
0
0
0
0
0
0
0
0
0
0
0
0
0
0
0
0
0
0
0
0
0
0
0
0
0
0
0
0
0
0
0
0
0
0
0
0
0
1
0
0
0
0
0
0
0
0
0
0
0
0
0
0
0
0
0
0
0
0
0
0
0
0
0
0
0
0
0
0
0
0
0
0
0
0
0
0
0
0
0
0
0
0
0
0
0
0
0
0
1
0
0
0
0
0
0
0
0
0
0
0
0
0
0
0
0
0
0
0
0
0
0
0
0
0
0
0
0
0
0
0
0
0
0
0
0
0
0
0
0
0
0
0
0
0
0
0
0
0
0
0
0
0
0
0
0
0
1
0
0
0
0
0
0
0
0
0
0
0
0
0
0
0
0
0
0
0
0
0
0
0
0
0
0
0
0
0
0
0
0
0
0
0
0
0
0
0
0
0
0
0
0
0
0
0
0
0
0
0
0
0
0
0
0
0
0
0
0
0
0
0
0
0
0
0
0
0
0
0
0
0
0
0
0
0
0
0
0
0
0
0
0
0
0
0
0
0
0
0
0
0
0
0
0
0
0
0
0
0
0
0
0
0
0
0
0
0
0
0
0
0
0
0
0
0
0
0
0
0
0
0
0
0
0
0
0
0
0
0
0
1
0
0
0
0
0
0
0
0
0
0
0
0
0
0
0
0
0
0
0
1
0
0
0
0
0
0
0
0
0
0
0
0
0
0
0
0
0
0
0
0
0
0
0
0
0
0
0
0
0
0
0
0
0
0
0
0
0
0
0
0
0
0
0
0
0
0
0
0
0
0
0
0
0
1
0
0
0
0
0
0
0
0
0
0
0
0
0
0
0
0
0
0
0
0
0
0
0
1
0
0
0
0
0
0
0
0
0
0
0
0
0
0
0
0
0
0
0
1
0
0
0
1
0
0
0
0
0
0
0
0
0
0
0
0
0
0
0
0
0
0
0
0
0
0
0
0
0
1
0
0
0
0
0
0
0
1
0
0
0
0
0
0
0
0
0
0
0
0
0
0
0
0
0
0
0
0
0
0
0
0
0
0
1
0
0
0
0
0
0
0
1
0
0
0
0
0
0
1
0
0
0
0
0
0
0
0
0
0
0
0
0
0
0
0
0
0
0
0
0
0
0
0
0
0
0
0
0
0
0
0
0
0
0
0
0
0
1
0
0
0
0
0
1
0
0
0
0
0
0
0
1
0
0
0
0
0
0
0
0
0
0
0
0
0
1
0
0
0
0
0
0
0
0
0
0
0
0
0
0
0
0
0
0
0
0
0
0
0
0
0
0
0
0
0
0
0
0
0
0
0
0
0
0
0
0
0
0
0
0
0
0
0
0
0
0
0
0
0
1
0
0
0
0
0
0
0
0
0
0
0
0
0
0
0
0
0
0
0
1
0
0
0
0
0
0
0
0
0
1
0
0
0
0
0
0
0
0
0
0
0
0
0
0
0
0
0
0
0
0
0
0
0
0
0
0
0
0
0
1
0
1
0
0
0
0
0
0
0
0
0
0
0
0
0
0
0
0
0
0
0
0
0
0
0
0
0
0
0
1
0
0
0
1
0
0
0
0
0
0
0
0
0
0
0
0
0
0
0
0
0
0
0
0
0
0
0
0
0
0
0
0
1
0
0
0
0
0
0
0
0
0
0
0
0
0
0
0
0
0
0
0
0
0
0
0
0
0
1
0
0
0
0
0
0
0
0
0
0
0
0
0
0
0
0
0
0
0
0
0
0
0
1
0
0
0
0
0
0
1
0
0
0
0
0
0
0
0
0
0
0
1
0
0
0
0
0
0
0
0
0
0
0
0
0
0
0
0
0
0
0
0
1
0
0
0
0
0
0
0
0
0
0
0
1
0
0
0
0
0
0
0
0
0
0
0
0
0
0
0
0
0
0
0
0
0
1
0
0
0
0
0
0
0
0
0
1
1
0
1
0
1
0
0
0
0
0
0
0
0
0
0
0
1
0
0
0
0
0
1
1
0
0
0
0
0
0
1
0
0
0
0
0
1
1
1
0
0
0
0
0
0
0
0
0
0
0
0
1
1
0
0
1
0
0
0
0
0
1
0
0
0
1
0
1
0
0
0
0
0
0
0
1
0
0
0
0
0
0
0
1
0
0
1
0
0
0
0
0
0
0
0
0
0
0
0
0
0
0
1
0
0
0
0
0
0
0
0
0
0
0
0
0
0
0
0
0
0
0
0
0
0
0
0
0
0
0
0
0
0
0
0
0
0
0
0
1
0
0
0
0
0
0
1
0
0
0
1
0
0
0
0
0
0
0
0
0
0
0
1
0
0
0
0
0
0
0
0
0
0
0
0
0
0
0
0
0
0
0
0
0
0
0
0
0
0
0
0
0
0
0
0
0
0
0
0
0
0
0
0
1
1
0
0
0
0
0
0
0
0
0
0
0
0
0
1
0
0
0
0
0
0
0
0
0
0
0
0
0
0
0
0
0
0
0
0
0
0
0
0
0
0
0
0
0
0
0
0
0
0
0
0
0
0
0
0
0
0
0
0
0
0
0
0
0
0
0
0
0
0
0
0
0
0
0
0
0
0
0
0
0
0
0
0
0
0
0
0
1
1
0
0
0
0
0
0
0
0
1
0
0
0
0
0
0
0
0
0
0
0
0
0
0
0
0
0
0
0
0
0
0
0
1
0
0
0
0
0
0
0
0
0
0
0
0
0
0
0
0
1
0
0
0
0
0
0
0
0
0
0
0
0
0
0
0
0
0
0
0
0
0
0
0
0
0
0
0
0
0
0
0
0
0
0
0
0
0
0
0
0
0
0
0
0
0
0
0
0
0
0
0
0
0
0
0
0
0
0
0
0
0
0
0
0
0
0
0
0
0
0
0
0
0
0
0
0
0
0
0
0
0
0
0
0
0
0
0
0
0
0
1
1
0
0
0
0
0
1
0
0
0
0
0
0
0
0
0
0
0
0
1
0
0
0
0
0
0
0
0
0
0
0
0
0
0
0
0
0
0
0
0
0
0
0
0
0
0
0
0
0
0
0
0
0
0
0
0
0
0
0
0
0
0
0
0
0
0
0
0
0
0
0
0
0
1
0
1
0
0
0
0
0
0
0
0
0
0
0
0
0
0
0
0
0
0
1
0
0
0
0
0
0
0
0
0
0
0
0
0
0
0
0
0
0
0
0
0
0
0
0
0
0
0
0
0
0
0
0
0
0
0
0
0
0
0
0
0
0
0
0
0
0
0
0
0
0
0
0
0
0
0
0
0
0
0
0
0
0
0
0
0
0
0
0
0
0
1
0
0
0
0
0
0
0
0
0
0
1
0
0
0
0
0
0
0
0
0
0
0
0
0
0
0
0
0
0
0
0
0
0
0
0
0
0
0
0
0
0
0
0
0
0
0
0
0
1
0
0
0
0
0
0
0
0
0
0
0
0
0
0
0
0
0
0
0
0
0
0
0
0
0
0
0
0
0
0
0
0
0
0
0
0
0
0
0
0
0
0
0
0
0
0
0
0
0
0
0
0
0
0
0
0
0
0
0
0
0
0
0
0
0
0
0
0
0
0
0
0
0
0
0
0
0
0
0
0
0
1
0
0
0
0
0
0
0
0
0
0
0
0
0
0
0
0
0
0
0
0
0
0
0
0
0
0
0
0
0
0
0
0
0
0
0
0
0
0
0
0
0
0
0
0
0
0
0
0
0
0
0
0
0
0
0
0
0
0
0
0
0
0
0
0
0
0
0
0
0
0
0
0
0
0
0
0
0
0
0
0
0
0
0
0
0
0
0
0
0
0
0
0
0
0
0
0
0
0
0
0
0
0
0
0
0
0
0
0
0
0
0
0
0
0
0
0
0
0
0
0
0
0
0
1
0
0
0
0
0
0
0
0
0
0
0
0
0
0
0
0
0
0
0
0
0
0
0
0
0
0
0
0
0
0
0
0
0
0
0
0
0
0
0
0
0
0
0
0
0
0
0
0
0
0
0
0
0
0
0
0
0
0
0
0
0
0
0
0
0
0
0
0
0
0
0
0
0
0
0
0
0
0
0
0
0
1
0
0
0
0
0
0
0
1
0
0
0
0
0
0
0
0
0
0
0
0
0
0
0
0
0
0
0
0
0
0
0
0
0
0
0
0
0
0
0
0
0
0
0
0
0
1
0
0
0
0
0
0
0
0
0
0
0
0
0
0
0
0
0
0
0
0
0
1
0
0
0
0
0
0
0
0
0
0
0
0
1
1
0
0
0
0
0
0
0
0
0
0
0
0
0
0
0
1
1
0
1
0
0
0
0
0
0
0
0
0
1
0
0
0
0
0
0
1
0
0
0
0
0
0
0
0
0
0
1
0
0
0
0
1
0
1
0
0
0
0
0
0
0
1
0
0
0
1
0
0
0
1
0
1
1
0
0
1
1
0
0
0
1
0
0
0
1
0
0
0
0
0
0
0
0
0
1
0
0
0
0
0
0
1
0
0
0
0
0
0
0
0
0
0
0
0
0
0
0
0
0
0
0
0
0
0
0
0
0
0
0
1
0
0
1
0
0
0
0
0
0
0
0
0
0
0
0
0
0
0
0
0
0
1
0
0
1
0
0
0
0
0
0
0
0
0
0
0
1
0
0
1
0
0
0
0
0
0
0
0
0
0
0
1
1
0
0
0
0
0
0
0
0
0
0
0
0
1
0
0
0
0
0
0
0
0
0
0
0
0
0
0
0
0
0
1
0
0
0
0
0
0
0
0
0
0
0
0
0
0
0
0
0
1
0
0
0
0
0
0
0
0
0
0
0
0
0
0
0
0
0
0
0
0
0
0
0
0
0
0
0
0
0
0
0
0
0
0
0
0
0
0
0
0
1
0
0
0
0
0
0
0
0
0
0
0
0
0
0
0
0
0
0
0
0
0
0
0
0
0
0
0
0
0
0
0
0
0
0
0
0
0
0
0
0
0
0
0
0
0
1
0
0
0
0
0
0
0
0
0
0
0
0
0
0
0
0
0
0
0
0
0
0
0
0
0
0
0
0
0
0
0
0
0
0
0
0
0
0
0
0
0
0
0
0
0
0
0
1
0
0
0
0
0
0
0
0
0
0
1
0
0
0
0
0
0
0
0
0
0
0
0
0
0
0
1
0
0
1
0
0
0
0
0
0
0
0
0
0
0
0
0
0
0
0
0
0
0
0
0
0
0
1
0
0
0
0
0
0
0
0
0
0
0
0
0
0
0
0
0
0
0
0
0
0
0
0
0
0
0
0
0
0
0
0
0
0
0
1
0
0
0
0
0
0
0
0
0
0
0
0
0
0
0
0
0
0
0
0
0
0
0
0
0
0
0
0
0
0
0
0
0
0
0
0
0
0
0
0
0
0
0
0
0
0
0
0
0
0
0
0
0
0
0
0
0
0
0
0
0
0
0
0
0
0
0
0
0
0
0
0
0
0
0
0
1
0
0
0
0
0
0
0
0
0
0
0
0
0
0
0
0
0
0
0
0
0
0
0
0
0
0
0
0
0
0
0
0
0
0
0
0
0
0
0
1
0
0
0
0
0
0
0
0
0
0
0
0
1
1
0
0
0
0
0
0
0
0
0
0
0
0
0
0
0
0
0
0
0
0
0
0
0
0
0
0
0
0
0
0
0
0
0
0
0
0
0
0
0
0
0
0
0
0
0
0
0
0
0
0
0
0
0
0
0
0
0
0
0
0
0
0
0
0
0
0
0
0
0
0
0
0
0
0
0
0
0
0
0
0
0
0
0
0
0
0
0
0
0
0
0
0
0
0
0
0
0
0
0
0
0
1
0
1
0
0
0
0
0
0
0
1
1
1
1
0
0
0
0
0
0
0
0
0
0
0
0
0
0
0
0
0
0
0
0
0
0
0
0
0
0
0
0
1
1
0
0
0
0
0
0
0
0
0
0
0
0
0
0
0
0
0
0
1
0
0
0
0
0
0
0
1
1
0
1
1
0
0
1
0
0
0
0
0
0
0
1
0
1
0
0
0
0
0
0
0
0
0
0
0
0
0
0
0
0
0
0
0
0
0
0
0
0
0
0
0
1
1
0
0
0
1
1
0
0
0
0
1
0
0
1
0
1
0
0
0
0
0
1
0
0
0
1
0
0
0
0
0
0
0
0
0
0
0
0
0
0
0
0
0
0
0
0
0
0
0
0
0
0
0
1
0
0
0
0
0
0
1
0
0
0
0
0
0
0
0
0
0
0
0
0
0
0
0
0
0
0
0
0
0
0
0
0
0
0
0
0
1
0
1
0
0
0
0
0
0
0
1
0
0
0
0
0
0
0
0
0
0
0
1
0
0
0
0
0
0
0
0
0
1
0
0
0
0
0
0
0
1
0
0
0
0
0
0
0
1
0
0
0
0
0
0
0
0
0
0
0
0
0
0
0
0
0
0
0
1
0
1
0
0
0
0
0
1
0
0
0
0
0
0
0
0
0
0
0
0
0
0
0
0
0
0
0
0
0
0
0
0
0
1
0
1
0
0
0
0
0
0
0
0
0
1
0
0
0
0
0
1
0
0
0
0
0
0
0
0
0
0
0
0
0
0
0
1
0
0
0
0
0
0
0
0
1
0
0
0
0
0
0
0
0
0
0
0
0
0
0
0
0
0
0
0
0
0
0
0
0
0
0
0
0
0
0
1
0
0
0
0
0
0
0
0
0
0
0
0
0
0
0
0
1
0
0
0
0
0
0
0
0
1
0
0
0
0
0
0
0
0
0
1
0
0
0
0
0
1
0
0
0
0
0
0
0
0
0
0
0
0
0
0
0
0
0
0
0
1
0
0
0
0
0
0
1
0
0
0
0
0
0
0
0
1
0
0
0
0
0
0
0
0
0
0
0
0
0
0
1
0
0
1
0
0
0
1
0
0
0
0
0
0
0
0
0
0
0
0
0
0
0
0
1
0
0
0
0
0
0
0
0
0
0
1
0
1
0
0
0
0
0
0
1
0
0
0
0
0
0
0
0
0
0
0
0
0
0
0
0
0
0
0
0
0
0
0
0
0
0
0
1
1
0
0
0
0
0
0
1
0
0
0
0
0
0
0
0
0
0
0
0
0
1
0
0
0
0
0
0
0
1
0
0
0
0
0
0
0
0
0
0
0
0
0
0
0
0
0
0
0
0
0
0
0
0
0
0
0
1
0
0
0
0
0
0
0
0
0
0
1
0
0
1
0
0
0
0
0
0
0
0
0
0
0
0
0
0
0
0
0
0
0
0
0
0
0
0
0
0
0
0
0
1
0
0
0
0
0
0
0
1
0
0
0
0
0
0
0
1
0
0
0
0
1
0
0
0
0
0
0
0
0
0
0
0
1
0
1
0
0
0
1
0
				</DataArray>
				<DataArray type="Float64" Name="h" NumberOfComponents="1" Format="ascii">
1.1435148837
1.1434802923
1.1523420678
1.1453779245
1.1530865379
1.1518933700
1.1488176898
1.1404579126
1.1471555977
1.1329739774
1.1428509657
1.1507015567
1.1387197311
1.1390982837
1.1408072019
1.1310724199
1.1476251259
1.1336377123
1.1421910843
1.1411450842
1.1559347698
1.1384333351
1.1471412113
1.1560548042
1.1451590341
1.1284015811
1.1416290534
1.1597199808
1.1520314603
1.1357666830
1.1382937824
1.1487226517
1.1366042942
1.1539135183
1.1650266080
1.1566507197
1.1610165790
1.1471054852
1.1593951212
1.1570829690
1.1535511100
1.1620168245
1.1434317465
1.1523361270
1.1579935378
1.1574186309
1.1487734708
1.1678262640
1.1814636925
1.1797545206
1.1592354671
1.1571424815
1.1539483270
1.1713601036
1.1616022369
1.1430181094
1.1590616156
1.1715852860
1.1723889695
1.1708651165
1.1766949485
1.1757668217
1.1808219631
1.1586296401
1.1541496978
1.1645409027
1.1779878211
1.1789905940
1.1750610642
1.1741467628
1.1727805609
1.1633470200
1.1465891555
1.1733298735
1.1727444703
1.1600603121
1.1716394414
1.1762289518
1.1696684205
1.1601496517
1.1795482745
1.1671777543
1.1848043906
1.1770817872
1.1557269746
1.1643632354
1.1808929229
1.1748001785
1.1767551200
1.1835753348
1.1806756210
1.1615964900
1.1776033811
1.1823290365
1.1680373538
1.1654304138
1.1723382539
1.1576888974
1.1609950833
1.1804822311
1.1842195292
1.1803955274
1.1713049570
1.1704797936
1.1247815251
1.1760432173
1.1686344426
1.1824938753
1.1756348252
1.1689464584
1.1814820423
1.1828734989
1.1796571638
1.1806621811
1.1740424875
1.1855053843
1.1721469997
1.1291342866
1.1834845453
1.1764495988
1.1254978297
1.1732446137
1.1646029690
1.1183683952
1.1793729494
1.1831533199
1.1747359295
1.1174996405
1.1854968532
1.1857144457
1.1837181671
1.1696850799
1.1771175411
1.1874848261
1.1282086337
1.1829680667
1.1237494308
1.1872854041
1.1830540498
1.1314554319
1.1169881638
1.1225707063
1.1846726565
1.1362099711
1.1659682987
1.1826032636
1.1272328571
1.1883314793
1.1209722993
1.1896905672
1.1206921458
1.1884209066
1.1880691967
1.1908456552
1.1817467390
1.1871185080
1.1907651578
1.1205692171
1.1898953553
1.1082435272
1.1327261883
1.1884233305
1.1242045303
1.1133073231
1.1194884133
1.1865083210
1.1410170676
1.1282967873
1.1105364922
1.1876803487
1.1901969971
1.1064582138
1.1908709510
1.1192486525
1.1423547991
1.1936155015
1.1374384873
1.1873796644
1.1929250860
1.1130692679
1.1863482284
1.1473114758
1.1079579532
1.1662951879
1.1055940266
1.1000332598
1.1458502295
1.1916756398
1.1080411537
1.0987593136
1.1521979323
1.1927255599
1.1033881692
1.1506391100
1.1933924700
1.1869964706
1.1147597507
1.1570683639
1.1553094822
1.1898901565
1.0979769184
1.1688922905
1.0996514732
1.1911615119
1.1619460762
1.1088979645
1.1269630138
1.1195483269
1.1600835334
1.1355258819
1.1501211536
1.1028765075
1.1123467543
1.1085646820
1.1232458350
1.1551699182
1.1310569822
1.1120228503
1.1451455613
1.1063805545
1.1648111072
1.1826368780
1.1402486949
1.1802537546
1.1704883111
1.1880697686
1.1847476359
1.1764983244
1.1666418207
1.1836965424
1.1895974756
1.1815081505
1.1737766955
1.1890862826
1.1869616115
1.1786794144
1.1518930891
1.1263011762
1.1057775446
1.1346666325
1.1498503267
1.1194609817
1.1109284421
1.1366933257
1.1204350359
1.1278317328
1.1106597429
1.1466982808
1.1227720484
1.1133328593
1.1302610575
1.1445504508
1.1136201917
1.1571210777
1.1552621190
1.1108338686
1.1320703667
1.1240129693
1.1085635121
1.1811102197
1.1394577638
1.1709359783
1.1767640274
1.1804116493
1.1726981081
1.1861265139
1.1866024359
1.1651661908
1.1883010040
1.1824518655
1.1839889047
1.1416073300
1.1831667612
1.1777891745
1.1797384953
1.1671432200
1.1741544016
1.1788057920
1.1815600334
1.1692109821
1.1841028534
1.1875381360
1.1872261269
1.1856657122
1.1832325434
1.1821983835
1.1755596627
1.1253217791
1.1122694843
1.1124148130
1.1270151016
1.1519103339
1.1190216386
1.1200988330
1.1337698740
1.1499305451
1.1358983252
1.1219523005
1.1141396802
1.1108340742
1.1125638013
1.1233480102
1.1463707084
1.1557032123
1.1574585010
1.1292574815
1.1442377703
1.1312075475
1.1144708334
1.1715730588
1.1781185674
1.1772310740
1.1867960637
1.1657680791
1.1833367989
1.1811537425
1.1388008311
1.1828138180
1.1852354516
1.1409911639
1.1806206354
1.1731208730
1.1823416249
1.1849601723
1.1747022235
1.1759172434
1.1791739421
1.1858533195
1.1798459687
1.1820860480
1.1834757205
1.1844853263
1.1860737376
1.1678947258
1.1816459012
1.1697188464
1.1828627496
1.1259723576
1.1821473484
1.1330010831
1.1504788938
1.1352146979
1.1133409089
1.1523097674
1.1181099306
1.1241052976
1.1193386560
1.1132844971
1.1822990688
1.1770632827
1.1565904088
1.1830877547
1.1223410419
1.1148272860
1.1818491176
1.1281877681
1.1806477428
1.1443517428
1.1302816514
1.1838387799
1.1830907495
1.1815716610
1.1125647972
1.1464041760
1.1581568088
1.1207727236
1.1712900648
1.1762246044
1.1811970355
1.1136701232
1.1835341080
1.1832601809
1.1143490778
1.1840034233
1.1812975264
1.1810238334
1.1839103005
1.1069458554
1.1828380742
1.1724460108
1.1666785134
1.1825572514
1.1853881022
1.1384521458
1.1823625535
1.1406413020
1.1737711785
1.1785948285
1.1778898169
1.1320247581
1.1847152715
1.1689326900
1.1801751680
1.1674888308
1.1834566630
1.1818677024
1.1012210253
1.1100540519
1.1163332223
1.1555025412
1.1754573908
1.1829566033
1.1482483995
1.1820529828
1.1619147445
1.1845888360
1.1826381178
1.1704809632
1.1764797855
1.1403181035
1.1797267611
1.1743119789
1.1826003849
1.1784466798
1.1248326224
1.1819983836
1.1825095525
1.1348212130
1.1832581702
1.1757750795
1.1731592469
1.1681347324
1.1181300063
1.1827038403
1.1816375187
1.1814707620
1.1825710492
1.1137538588
1.1838464807
1.1531952025
1.1793881497
1.1815357741
1.1841175234
1.1825781000
1.1823622888
1.1824140534
1.1853209291
1.1826349463
1.1823697388
1.1749138203
1.1798225105
1.1858947307
1.1210489918
1.1860071701
1.1788427803
1.1294652210
1.1782461417
1.1830791870
1.1822558455
1.1848963815
1.1853006799
1.1829946962
1.1136715689
1.1728150182
1.1469219345
1.1681332071
1.1816605366
1.1832510697
1.1835737630
1.1825915055
1.1145446237
1.1593074251
1.1237658342
1.1841026680
1.1407187957
1.1816522638
1.1801496078
1.1746604521
1.1618981569
1.1164739164
1.1830241198
1.1349335948
1.1824685895
1.1480637376
1.1679267785
1.1792658463
1.1832603004
1.1392608034
1.1133351686
1.1044901004
1.1037748732
1.1609207934
1.1195657105
1.1834739349
1.1881406442
1.1855990120
1.1826074775
1.1056860928
1.1807083389
1.1088634717
1.1819844177
1.1715169432
1.1834923101
1.1134700859
1.1012161831
1.1238403066
1.1289647502
1.1858484432
1.1821975129
1.0980347660
1.1886714062
1.1874971160
1.1302603555
1.1163288083
1.1554984126
1.1413879253
1.1772575058
1.1139920131
1.1666657987
1.1846535799
1.1056934399
1.1546583907
1.1869586246
1.1349280119
1.1762621351
1.1133342730
1.1865133062
1.1774522165
1.1125662691
1.1327185426
1.1546565445
1.1819009177
1.1810556994
1.1817653572
1.1214146978
1.1861376902
1.0807025575
1.1847197794
1.1722681205
1.1533964036
1.1853215381
1.1237598203
1.1847153998
1.1146693908
1.1164703164
1.1615285502
1.1134674715
1.1289582622
1.1139936177
1.1722653247
1.1609192002
1.1553924366
1.1193963247
1.1135574750
1.1393847479
1.1265788479
1.0911041714
1.1480611235
1.1480213766
1.1091841402
1.1818365600
1.1296789263
1.1174302883
1.1708400663
1.1123735343
1.1744355273
1.1599599753
1.0997394435
1.1841353709
1.1823912985
1.1464708794
1.0918455177
1.1832425452
1.1195609622
1.1666029918
1.1826265961
1.1413834623
1.1801407235
1.1864407701
1.1829909307
1.1394713012
1.1840301947
1.1878541667
1.1857181379
1.1757712074
1.1105296248
1.1694925163
1.1796336473
1.1869541719
1.1487302023
1.1266322037
1.1822456301
1.1886674287
1.0639446141
1.1824801448
1.1121157450
1.1823639423
1.1825907433
1.1782396353
1.0970521906
1.1825653058
1.1633464488
1.1212555500
1.1677571581
1.1125436797
1.1728127378
1.1558470038
1.1122570556
1.1837453844
1.1477201310
1.1675219053
1.1412404249
1.1843791651
1.1203893012
1.1814603715
1.1273281264
1.1545393815
1.1872291847
1.1825020305
1.0435490141
1.1474858223
1.1102822425
1.1880533216
1.0795997726
1.1796326949
1.1154839268
1.1868243292
1.1146663341
1.1394683342
1.1533943784
1.1214098279
1.1814267294
1.1775512521
1.1098155160
1.1125659027
1.1337325739
1.0761929467
1.1898904136
1.1123712371
1.1221205272
1.1545391993
1.0928106073
1.1338252019
1.1599574903
1.1327154163
1.1464691907
1.1174264334
1.1902303286
1.1891005312
1.1893851852
1.1848680687
1.1135595950
1.1496548738
1.1599706476
1.1524586088
1.1828408002
1.1884439996
1.1708391187
1.1384344184
1.1861168620
1.0883297328
1.1299432966
1.1090433140
1.1121352362
1.0914181300
1.1451454504
1.1591897481
1.1265733853
1.1896717132
1.1229097159
1.1112962340
1.1092461887
1.1883407562
1.1902933354
1.1880446735
1.1886173677
1.0586203405
1.1375167971
1.1082513359
1.1168177792
1.1861475157
1.1857220689
1.1615258234
1.1429565321
1.1583129094
1.1082171865
1.1906297527
1.1066577873
1.1200570653
1.1889005800
1.1902658507
1.1435686144
1.1389806312
1.1912482131
1.1334540976
1.1313879355
1.0969076261
1.1913248496
1.1892765372
1.1911175738
1.1213331766
1.1078638473
1.0855213042
1.0858848013
1.1022763379
1.1913269901
1.1915299052
1.1899321300
1.1908028243
1.0856081624
1.1914258345
1.1910840880
1.0674301786
1.1891062110
1.1894948297
1.0435707547
1.1907084005
1.1296878295
1.1895030999
1.0934555093
1.1048032105
1.1904317067
1.0796394516
1.1904213490
1.1873845523
1.0918348181
1.1868751404
1.0767477712
1.0505149346
1.1874414659
1.1849406062
1.0965296282
1.1466137233
1.1484592880
1.1484300539
1.1465736912
1.1486083006
1.1507135218
1.1428607381
1.1435047065
1.1517288971
1.1519103137
1.1530675324
1.1517033854
1.1471327529
1.1408320583
1.1488361365
1.1365083337
1.1434880613
1.1485955663
1.1379485936
1.1336491163
1.1453709362
1.1523271550
1.1422320235
1.1357772317
1.1328119477
1.1508458907
1.1404362549
1.1283994839
1.1451575959
1.1329636669
1.1370250937
1.1386902890
1.1553575079
1.1330878169
1.1436927379
1.1364953278
1.1382990015
1.1379229384
1.1539175997
1.1366344249
1.1487715367
1.1380590760
1.1570946253
1.1562228530
1.1476255635
1.1310604666
1.1434836318
1.1594307454
1.1508369045
1.1327996283
1.1535814707
1.1390874092
1.1411467208
1.1553464282
1.1470836480
1.1681376044
1.1383986497
1.1601492578
1.1369956981
1.1559253427
1.1436419975
1.1420201173
1.1627153514
1.1678276580
1.1330713367
1.1580095955
1.1592389893
1.1488350069
1.1596825912
1.1560394370
1.1519891279
1.1590973791
1.1536943142
1.1415797556
1.1622178914
1.1312622557
1.1561850146
1.1634460821
1.1660654849
1.1380240554
1.1539966469
1.1681349520
1.1809234652
1.1795430201
1.1419693515
1.1601413422
1.1613266904
1.1626978025
1.1566277729
1.1542056508
1.1470434101
1.1656310665
1.1650218012
1.1808171934
1.1789792700
1.1638447336
1.1610109822
1.1586519104
1.1634351388
1.1697815380
1.1708427920
1.1522788144
1.1733253593
1.1697978946
1.1633559178
1.1466406162
1.1734842675
1.1514334359
1.1525571289
1.1622106077
1.1774296124
1.1660623728
1.1620004712
1.1716413486
1.1727807436
1.1741290936
1.1727428034
1.1536478836
1.1486032230
1.1750601231
1.1639949101
1.1312531489
1.1741470036
1.1613155170
1.1656254167
1.1637170169
1.1638276458
1.1775502140
1.1674796873
1.1793130484
1.1814701845
1.1571107460
1.1795502467
1.1573771070
1.1671870487
1.1770679843
1.1664469100
1.1809346778
1.1797676784
1.1766952363
1.1757671238
1.1485476403
1.1782050877
1.1741342706
1.1723881872
1.1694138046
1.1697952520
1.1572087811
1.1480158962
1.1697784825
1.1639922818
1.1659522949
1.1615878585
1.1746390935
1.1734823066
1.1774306131
1.1429687229
1.1681571739
1.1736313801
1.1513912475
1.1713559931
1.1708413100
1.1708625016
1.1616100441
1.1715817706
1.1525026335
1.1776021464
1.1775586470
1.1704812833
1.1610194678
1.1664387725
1.1528014589
1.1674747418
1.1803938264
1.1778824682
1.1790553230
1.1754634940
1.1645221845
1.1842254106
1.1780047347
1.1680488427
1.1577177338
1.1788960237
1.1654410713
1.1675800300
1.1793316955
1.1804812430
1.1760260540
1.1636998250
1.1855901596
1.1681469897
1.1756332869
1.1828708456
1.1782063660
1.1736323316
1.1796533899
1.1659462780
1.1600416674
1.1810098449
1.1694108636
1.1762300348
1.1479700784
1.1812132807
1.1571854547
1.1814686092
1.1689527432
1.1746390174
1.1790564716
1.1855819959
1.1704655712
1.1788964342
1.1643535228
1.1732385827
1.1759446915
1.1680463346
1.1270814270
1.1675737383
1.1754716455
1.1556974362
1.1601278234
1.1808932972
1.1847948700
1.1795487768
1.1721483894
1.1696663287
1.1779033516
1.1254958923
1.1748124323
1.1527663707
1.1812142764
1.1696852840
1.1799742304
1.1245973816
1.1831536242
1.1782929353
1.1815093078
1.1767581331
1.1680325716
1.1823375621
1.1844819745
1.1835724842
1.1806766585
1.1826719528
1.1721434500
1.1793654676
1.1747322467
1.1810292789
1.1857160633
1.1713055460
1.1848191210
1.1795856401
1.1704615904
1.1270849663
1.1759490755
1.1814625518
1.1282141011
1.1829685271
1.1771124599
1.1247834801
1.1723448309
1.1659726677
1.1783707460
1.1225698445
1.1786255321
1.1246063972
1.1844784141
1.1806656425
1.1824957210
1.1254980388
1.1721410528
1.1815111854
1.1740475622
1.1209667874
1.1799947936
1.1846731673
1.1149074145
1.1855031870
1.1782962872
1.1826031540
1.1826717885
1.1686330438
1.1244039452
1.1617598316
1.1778243693
1.1892070491
1.1848149170
1.1814660233
1.1194709922
1.1864826559
1.1840196150
1.1822141523
1.1764551381
1.1796102380
1.1884180440
1.1291281906
1.1832887564
1.1834837112
1.1317811078
1.1206780515
1.1880681952
1.1817453405
1.1255081403
1.1149131289
1.1282964265
1.1194803123
1.1786332449
1.1893295533
1.1244026917
1.1149601777
1.1886897715
1.1770007747
1.1783927806
1.1183668965
1.1854971976
1.1327412458
1.1220219761
1.1645892840
1.1837179895
1.1305449322
1.1241933225
1.1844939926
1.1884242043
1.1175017887
1.1898939097
1.1822143603
1.1237609815
1.1874867677
1.1885822296
1.1753081198
1.1840144534
1.1866513678
1.1872851239
1.1908673724
1.1339992136
1.1210622944
1.1830551623
1.1317732761
1.1778455646
1.1194829154
1.1892093124
1.1617439563
1.1832895413
1.1876813180
1.1854226939
1.1864833717
1.1901937405
1.1192397421
1.1896920143
1.1079561668
1.1734238039
1.1220263134
1.1149629579
1.1855164672
1.1892102973
1.1909753936
1.1361784852
1.1883300854
1.1272341402
1.1130645867
1.1886891509
1.1305390430
1.1770147915
1.1104439773
1.1169933683
1.1863518989
1.1844947573
1.1374667808
1.1843182867
1.1314411340
1.1893304661
1.1110409091
1.1080389213
1.1871162007
1.1907681744
1.1210717607
1.1724526828
1.1885828729
1.1262908153
1.1339957685
1.1753222310
1.1055927826
1.1866499693
1.1908491276
1.1205750952
1.1854245706
1.1458876078
1.1701213171
1.1933879136
1.1409757176
1.1110455298
1.1855099183
1.1870025160
1.1104469866
1.1909783796
1.1843198557
1.1871785338
1.1053562513
1.1892118099
1.1734296934
1.1119949380
1.1927212086
1.1865023996
1.1133103691
1.1865035890
1.1506677197
1.1883450842
1.1082454411
1.1689024989
1.1923585050
1.1064576130
1.0996532461
1.1423178121
1.1911572909
1.1724543793
1.1105362305
1.0979786154
1.1262872597
1.1553300094
1.1915836988
1.1929291290
1.1158397223
1.1053552634
1.1119970683
1.1028778355
1.1883443286
1.1871740489
1.1101859164
1.1860890773
1.1472783434
1.1865048085
1.1936197932
1.1701185587
1.1024914114
1.1005909697
1.1873749925
1.1123425570
1.1600988834
1.1521732389
1.1895932527
1.1923634611
1.0987572983
1.1915890317
1.1901711645
1.1907094822
1.1662812723
1.1000289787
1.1916794275
1.1648248057
1.1106587685
1.1278337795
1.1165453137
1.1204242424
1.1570507035
1.1005894151
1.1602555215
1.1059009836
1.1367129433
1.1157105622
1.1158462489
1.1519046163
1.1033872669
1.1039252181
1.1860795873
1.1147648595
1.1069262209
1.1240060957
1.1169697604
1.1571302243
1.1320831190
1.1136161299
1.1467146219
1.1024892504
1.1057786665
1.1101884320
1.1886803816
1.1622750903
1.1619335573
1.1901745764
1.1821852147
1.1416276621
1.1907153630
1.1797170151
1.1692262750
1.1872258736
1.1841107904
1.1858415125
1.1755573107
1.1651793845
1.1831651035
1.1898965963
1.1810890171
1.1727080810
1.1882932703
1.1850925708
1.1861346156
1.1777745711
1.1501027319
1.1270184522
1.1162698765
1.1063798050
1.1359116548
1.1519163278
1.1157166134
1.1602436032
1.1165538652
1.1085208473
1.1606398682
1.1200924253
1.1122688494
1.1059007899
1.1355018651
1.1195602545
1.1269621931
1.1088972062
1.1451217144
1.1233452052
1.1144686107
1.1039227914
1.1312173743
1.1463800353
1.1120256374
1.1551551632
1.1574621194
1.1171291795
1.1094663698
1.1310434473
1.1169779932
1.1232536695
1.1069250720
1.1815264198
1.1410038016
1.1628464937
1.1697322837
1.1759266675
1.1798350469
1.1737735615
1.1850809703
1.1869574316
1.1858557594
1.1666277864
1.1890929732
1.1847898763
1.1820746305
1.1834802529
1.1402216953
1.1886828835
1.1836924817
1.1786969942
1.1802762511
1.1657736752
1.1731362594
1.1781172173
1.1811392095
1.1704759857
1.1847365464
1.1858311240
1.1867893691
1.1622652241
1.1880735499
1.1849692304
1.1828100913
1.1841806939
1.1826444118
1.1765064768
1.1259759698
1.1164031292
1.1109287099
1.1085211182
1.1133409846
1.1262984703
1.1498384245
1.1613535141
1.1193365441
1.1606340251
1.1194696666
1.1352226656
1.1523096849
1.1346490787
1.1162742430
1.1223413023
1.1148273636
1.1094657650
1.1115008057
1.1227761769
1.1445347342
1.1581541516
1.1168514865
1.1552528065
1.1171343526
1.1302885459
1.1464073948
1.1302495754
1.1133347810
1.1704860320
1.1788139577
1.1764928351
1.1875451375
1.1671317112
1.1829600639
1.1815766908
1.1406476657
1.1832320748
1.1841711314
1.1838572801
1.1845931648
1.1637614612
1.1394391597
1.1801771370
1.1741418211
1.1820493398
1.1856583492
1.1737827485
1.1767609930
1.1786035675
1.1866036253
1.1628435803
1.1833849530
1.1804276600
1.1824617200
1.1839798863
1.1839180311
1.1853843528
1.1666760420
1.1812945746
1.1709205174
1.1825564667
1.1847782364
1.1820043262
1.1793934500
1.1624715409
1.1832675621
1.1253179039
1.1164047065
1.1819358238
1.1822978697
1.1348252652
1.1787548947
1.1531928999
1.1337572770
1.1838817708
1.1827111108
1.1816517753
1.1124152006
1.1499247918
1.1613556094
1.1181312894
1.1248357481
1.1190263244
1.1743147667
1.1734150397
1.1824229605
1.1137544922
1.1824449316
1.1834519515
1.1159863572
1.1822364727
1.1775287168
1.1593043222
1.1829812629
1.1219530235
1.1141401234
1.1821274547
1.1820026504
1.1294695288
1.1808643068
1.1469219211
1.1292481776
1.1841962440
1.1828823224
1.1817718839
1.1115013826
1.1442283614
1.1557008023
1.1159955855
1.1210507287
1.1168531909
1.1717822536
1.1759052177
1.1813891802
1.1129558118
1.1834444503
1.1828812041
1.1145465300
1.1358863557
1.1834791907
1.1650422965
1.1816541895
1.1645280690
1.1830814818
1.1807179113
1.1844767191
1.1044950224
1.1013077578
1.1137643947
1.1826126783
1.1088604262
1.1518252892
1.1715181702
1.1833781064
1.1678903280
1.1517617206
1.1828631814
1.1649836573
1.1860794223
1.1407211939
1.1822024817
1.1387885042
1.1746873633
1.1791703168
1.1352912742
1.1772676439
1.1302618297
1.1841028989
1.1679240179
1.1806251340
1.1675208202
1.1830303397
1.1816590793
1.1838475489
1.1075183024
1.1045310951
1.1062224698
1.1827606030
1.1129694852
1.1553075683
1.1746664158
1.1833307579
1.1637644881
1.1477125185
1.1823479714
1.1618977413
1.1852332571
1.1824732298
1.1715615417
1.1772194326
1.1392619420
1.1792772304
1.1748288305
1.1854401785
1.1825905950
1.1825197149
1.1774540691
1.1787491750
1.1819056580
1.1846543044
1.1241009420
1.1820670110
1.1861150925
1.1825543959
1.1820730654
1.1763372729
1.1329925523
1.1830693208
1.1764099165
1.1734113338
1.1797422684
1.1685289745
1.1811333972
1.1181107266
1.1825438895
1.1816449435
1.1816369068
1.1841438743
1.1830784244
1.1853296584
1.1829534217
1.1132847734
1.1702495004
1.1834424684
1.1504777887
1.1712868737
1.1731622521
1.1818452748
1.1823994647
1.1797350582
1.1847218775
1.1817539415
1.1838717592
1.1822904260
1.1835522257
1.1159854546
1.1624763313
1.1824368641
1.1824421278
1.1816446219
1.1770577707
1.1845619925
1.1826240549
1.1838556193
1.1826314620
1.1749917840
1.1762204684
1.1799879759
1.1856715713
1.1207709074
1.1819294524
1.1865849896
1.1823763198
1.1787617225
1.1281804628
1.1830810240
1.1787348114
1.1704630387
1.1704654830
1.1831086286
1.1159944880
1.1822916459
1.1818424800
1.1823066761
1.1843182862
1.1849517560
1.1835031672
1.1129572063
1.1735456885
1.1823681961
1.1838297768
1.1443473345
1.1685272007
1.1814354531
1.1827331043
1.1811888590
1.1835609300
1.1814002846
1.1834357093
1.1828741248
1.1832076556
1.1143480668
1.1565921276
1.1808583094
1.1830773538
1.1227508747
1.1847180234
1.1880600691
1.1843879881
1.1827547795
1.1384448293
1.1037679956
1.1818658665
1.1129710126
1.1840330532
1.1804708985
1.1754462746
1.1619127844
1.1837546324
1.1148997257
1.1013007410
1.1166724424
1.1834487341
1.1261395361
1.1325701121
1.1861248043
1.1826360520
1.1019117689
1.1876303426
1.1866969502
1.1358922514
1.1100500950
1.1587810685
1.1587763691
1.1450536173
1.1689323657
1.1797158947
1.1825958670
1.1403146740
1.1586782053
1.1134000727
1.1069416344
1.1694929797
1.1826927594
1.1003202807
1.1021388512
1.1580052807
1.0976983024
1.1876820275
1.1192466728
1.1839984585
1.1872366335
1.1847130871
1.1828332994
1.1065475533
1.1810178440
1.1062211307
1.1820764103
1.1724400890
1.1586735426
1.1828504633
1.1138173607
1.1045265994
1.1144788754
1.1830743161
1.1212502816
1.1272150754
1.1849025257
1.1823619221
1.1003115231
1.1883155486
1.1867274027
1.1320197896
1.1137606166
1.1553027858
1.1277428411
1.1386077019
1.1650452737
1.1778765901
1.1823688760
1.1352929053
1.1137046528
1.1075134452
1.1091475922
1.1640247592
1.1847525444
1.1058919858
1.1019191638
1.1516032967
1.1867303538
1.1646780447
1.1148977539
1.1325627965
1.1763343158
1.1134001768
1.1861074982
1.1749103469
1.1640264194
1.1518136962
1.1775968289
1.1111014437
1.1118608114
1.1340322703
1.1820122813
1.1357370035
1.1820155937
1.0928870301
1.1516019095
1.1518115048
1.1820099655
1.1813799851
1.1811288841
1.1138190740
1.1825504381
1.1821212847
1.1762640296
1.1717800087
1.1820044354
1.1341711665
1.1230050606
1.1854317271
1.1828752744
1.1735731755
1.0882002939
1.1748319123
1.1130361367
1.1846482961
1.1835262035
1.1722701600
1.1713228560
1.1825857121
1.1659603131
1.0875970011
1.1821404389
1.1842695021
1.1759004885
1.1848369297
1.1822862678
1.1566923773
1.0969243039
1.1848280249
1.1835491749
1.1227454372
1.1635195940
1.1845374968
1.1144144101
1.1166701528
1.1832510140
1.1617172057
1.1138156538
1.1272077585
1.1736694786
1.1137065233
1.1856651727
1.1722670940
1.1847238157
1.1580046716
1.1556353937
1.1798173547
1.1167458400
1.1133015819
1.1389684733
1.1290198366
1.0836345834
1.1450499153
1.1481009970
1.1784502219
1.1835675123
1.1788410464
1.1048128460
1.1815646521
1.1861454255
1.1817456182
1.1283589254
1.1180440952
1.1859991516
1.1706422467
1.0749250951
1.1114340727
1.1831041832
1.1822952343
1.1736715637
1.1740371594
1.1629402450
1.0934488920
1.1845534703
1.1825829791
1.1499135214
1.0841238302
1.1848876080
1.1835436532
1.1192432690
1.1666172502
1.1852928328
1.1122328639
1.1144760088
1.1826184629
1.1386018155