<VTKFile type="UnstructuredGrid" version="0.1">
	<UnstructuredGrid>
		<Piece NumberOfPoints="1862" NumberOfCells="3498">
			<CellData>
				<DataArray type="Int32" Name="type" NumberOfComponents="1" Format="ascii">
0
0
0
0
0
0
0
0
0
0
0
0
0
0
0
0
1
0
0
1
0
0
0
0
0
0
0
0
0
0
0
0
0
1
0
0
0
0
0
0
0
0
0
0
0
0
0
0
0
0
1
0
0
0
0
0
0
0
0
0
0
1
0
0
0
0
0
0
0
0
0
0
0
0
0
0
0
0
0
0
0
0
0
0
0
0
0
0
0
0
0
0
0
0
0
0
0
0
0
0
0
0
0
0
0
0
0
0
0
0
0
0
0
0
0
0
0
0
0
0
0
0
0
1
0
0
0
0
0
0
0
0
0
0
0
0
0
0
0
0
0
0
0
0
0
0
0
0
0
0
0
1
0
1
1
0
0
0
0
0
0
0
0
0
0
0
0
0
1
0
1
0
0
0
0
1
0
0
0
0
0
0
0
0
1
1
0
0
0
0
0
1
0
0
0
0
0
0
0
0
1
0
0
0
0
0
0
0
0
0
0
0
0
0
0
0
0
0
0
0
0
0
0
0
0
0
0
0
0
0
0
0
0
1
0
0
0
0
0
0
0
0
0
0
0
0
0
0
0
0
0
0
0
0
0
0
0
0
0
0
0
0
0
0
0
0
0
0
0
0
0
0
0
0
0
0
0
0
0
0
0
1
0
0
0
0
0
0
0
0
0
0
0
0
0
0
0
0
0
0
0
0
0
0
0
0
0
0
0
0
0
0
0
0
0
0
0
0
0
0
0
0
0
0
0
0
0
0
0
0
0
0
1
0
0
0
0
0
0
0
0
0
0
0
0
0
0
0
0
0
0
0
0
0
0
0
0
0
0
0
0
0
0
0
0
0
0
0
0
0
0
0
0
0
0
0
0
0
0
0
0
0
0
0
0
0
0
0
0
0
1
0
0
0
0
0
0
0
0
0
0
0
0
0
0
0
0
0
0
0
0
0
0
0
0
0
0
0
0
0
0
0
0
0
0
0
0
0
0
0
0
0
0
0
0
0
0
0
0
0
0
0
0
0
0
0
0
0
0
0
0
0
0
0
0
0
0
0
0
0
0
0
0
0
0
0
0
0
0
0
0
0
0
0
0
0
0
0
0
0
0
0
0
0
0
0
0
0
0
0
0
0
0
0
0
0
0
0
0
0
0
0
0
0
0
0
0
0
0
0
0
0
0
0
0
0
0
0
0
0
0
0
0
1
0
0
0
0
0
0
0
0
0
0
0
0
0
0
0
0
0
0
0
1
0
0
0
0
0
0
0
0
0
0
0
0
0
0
0
0
0
0
0
0
0
0
0
0
0
0
0
0
0
0
0
0
0
0
0
0
0
0
0
0
0
0
0
0
0
0
0
0
0
0
0
0
0
1
0
0
0
0
0
0
0
0
0
0
0
0
0
0
0
0
0
0
0
0
0
0
0
1
0
0
0
0
0
0
0
0
0
0
0
0
0
0
0
0
0
0
0
1
0
0
0
1
0
0
0
0
0
0
0
0
0
0
0
0
0
0
0
0
0
0
0
0
0
0
0
0
0
1
0
0
0
0
0
0
0
1
0
0
0
0
0
0
0
0
0
0
0
0
0
0
0
0
0
0
0
0
0
0
0
0
0
0
1
0
0
0
0
0
0
0
1
0
0
0
0
0
0
1
0
0
0
0
0
0
0
0
0
0
0
0
0
0
0
0
0
0
0
0
0
0
0
0
0
0
0
0
0
0
0
0
0
0
0
0
0
0
1
0
0
0
0
0
1
0
0
0
0
0
0
0
1
0
0
0
0
0
0
0
0
0
0
0
0
0
1
0
0
0
0
0
0
0
0
0
0
0
0
0
0
0
0
0
0
0
0
0
0
0
0
0
0
0
0
0
0
0
0
0
0
0
0
0
0
0
0
0
0
0
0
0
0
0
0
0
0
0
0
0
1
0
0
0
0
0
0
0
0
0
0
0
0
0
0
0
0
0
0
0
1
0
0
0
0
0
0
0
0
0
1
0
0
0
0
0
0
0
0
0
0
0
0
0
0
0
0
0
0
0
0
0
0
0
0
0
0
0
0
0
1
0
1
0
0
0
0
0
0
0
0
0
0
0
0
0
0
0
0
0
0
0
0
0
0
0
0
0
0
0
1
0
0
0
1
0
0
0
0
0
0
0
0
0
0
0
0
0
0
0
0
0
0
0
0
0
0
0
0
0
0
0
0
1
0
0
0
0
0
0
0
0
0
0
0
0
0
0
0
0
0
0
0
0
0
0
0
0
0
1
0
0
0
0
0
0
0
0
0
0
0
0
0
0
0
0
0
0
0
0
0
0
0
1
0
0
0
0
0
0
1
0
0
0
0
0
0
0
0
0
0
0
1
0
0
0
0
0
0
0
0
0
0
0
0
0
0
0
0
0
0
0
0
1
0
0
0
0
0
0
0
0
0
0
0
1
0
0
0
0
0
0
0
0
0
0
0
0
0
0
0
0
0
0
0
0
0
1
0
0
0
0
0
0
0
0
0
1
1
0
1
0
1
0
0
0
0
0
0
0
0
0
0
0
1
0
0
0
0
0
1
1
0
0
0
0
0
0
1
0
0
0
0
0
1
1
1
0
0
0
0
0
0
0
0
0
0
0
0
1
1
0
0
1
0
0
0
0
0
1
0
0
0
1
0
1
0
0
0
0
0
0
0
1
0
0
0
0
0
0
0
1
0
0
1
0
0
0
0
0
0
0
0
0
0
0
0
0
0
0
1
0
0
0
0
0
0
0
0
0
0
0
0
0
0
0
0
0
0
0
0
0
0
0
0
0
0
0
0
0
0
0
0
0
0
0
0
1
0
0
0
0
0
0
1
0
0
0
1
0
0
0
0
0
0
0
0
0
0
0
1
0
0
0
0
0
0
0
0
0
0
0
0
0
0
0
0
0
0
0
0
0
0
0
0
0
0
0
0
0
0
0
0
0
0
0
0
0
0
0
0
1
1
0
0
0
0
0
0
0
0
0
0
0
0
0
1
0
0
0
0
0
0
0
0
0
0
0
0
0
0
0
0
0
0
0
0
0
0
0
0
0
0
0
0
0
0
0
0
0
0
0
0
0
0
0
0
0
0
0
0
0
0
0
0
0
0
0
0
0
0
0
0
0
0
0
0
0
0
0
0
0
0
0
0
0
0
0
0
1
1
0
0
0
0
0
0
0
0
1
0
0
0
0
0
0
0
0
0
0
0
0
0
0
0
0
0
0
0
0
0
0
0
1
0
0
0
0
0
0
0
0
0
0
0
0
0
0
0
0
1
0
0
0
0
0
0
0
0
0
0
0
0
0
0
0
0
0
0
0
0
0
0
0
0
0
0
0
0
0
0
0
0
0
0
0
0
0
0
0
0
0
0
0
0
0
0
0
0
0
0
0
0
0
0
0
0
0
0
0
0
0
0
0
0
0
0
0
0
0
0
0
0
0
0
0
0
0
0
0
0
0
0
0
0
0
0
0
0
0
0
1
1
0
0
0
0
0
1
0
0
0
0
0
0
0
0
0
0
0
0
1
0
0
0
0
0
0
0
0
0
0
0
0
0
0
0
0
0
0
0
0
0
0
0
0
0
0
0
0
0
0
0
0
0
0
0
0
0
0
0
0
0
0
0
0
0
0
0
0
0
0
0
0
0
1
0
1
0
0
0
0
0
0
0
0
0
0
0
0
0
0
0
0
0
0
1
0
0
0
0
0
0
0
0
0
0
0
0
0
0
0
0
0
0
0
0
0
0
0
0
0
0
0
0
0
0
0
0
0
0
0
0
0
0
0
0
0
0
0
0
0
0
0
0
0
0
0
0
0
0
0
0
0
0
0
0
0
0
0
0
0
0
0
0
0
0
1
0
0
0
0
0
0
0
0
0
0
1
0
0
0
0
0
0
0
0
0
0
0
0
0
0
0
0
0
0
0
0
0
0
0
0
0
0
0
0
0
0
0
0
0
0
0
0
0
1
0
0
0
0
0
0
0
0
0
0
0
0
0
0
0
0
0
0
0
0
0
0
0
0
0
0
0
0
0
0
0
0
0
0
0
0
0
0
0
0
0
0
0
0
0
0
0
0
0
0
0
0
0
0
0
0
0
0
0
0
0
0
0
0
0
0
0
0
0
0
0
0
0
0
0
0
0
0
0
0
0
1
0
0
0
0
0
0
0
0
0
0
0
0
0
0
0
0
0
0
0
0
0
0
0
0
0
0
0
0
0
0
0
0
0
0
0
0
0
0
0
0
0
0
0
0
0
0
0
0
0
0
0
0
0
0
0
0
0
0
0
0
0
0
0
0
0
0
0
0
0
0
0
0
0
0
0
0
0
0
0
0
0
0
0
0
0
0
0
0
0
0
0
0
0
0
0
0
0
0
0
0
0
0
0
0
0
0
0
0
0
0
0
0
0
0
0
0
0
0
0
0
0
0
0
1
0
0
0
0
0
0
0
0
0
0
0
0
0
0
0
0
0
0
0
0
0
0
0
0
0
0
0
0
0
0
0
0
0
0
0
0
0
0
0
0
0
0
0
0
0
0
0
0
0
0
0
0
0
0
0
0
0
0
0
0
0
0
0
0
0
0
0
0
0
0
0
0
0
0
0
0
0
0
0
0
0
1
0
0
0
0
0
0
0
1
0
0
0
0
0
0
0
0
0
0
0
0
0
0
0
0
0
0
0
0
0
0
0
0
0
0
0
0
0
0
0
0
0
0
0
0
0
1
0
0
0
0
0
0
0
0
0
0
0
0
0
0
0
0
0
0
0
0
0
1
0
0
0
0
0
0
0
0
0
0
0
0
1
1
0
0
0
0
0
0
0
0
0
0
0
0
0
0
0
1
1
0
1
0
0
0
0
0
0
0
0
0
1
0
0
0
0
0
0
1
0
0
0
0
0
0
0
0
0
0
1
0
0
0
0
1
0
1
0
0
0
0
0
0
0
1
0
0
0
1
0
0
0
1
0
1
1
0
0
1
1
0
0
0
1
0
0
0
1
0
0
0
0
0
0
0
0
0
1
0
0
0
0
0
0
1
0
0
0
0
0
0
0
0
0
0
0
0
0
0
0
0
0
0
0
0
0
0
0
0
0
0
0
1
0
0
1
0
0
0
0
0
0
0
0
0
0
0
0
0
0
0
0
0
0
1
0
0
1
0
0
0
0
0
0
0
0
0
0
0
1
0
0
1
0
0
0
0
0
0
0
0
0
0
0
1
1
0
0
0
0
0
0
0
0
0
0
0
0
1
0
0
0
0
0
0
0
0
0
0
0
0
0
0
0
0
0
1
0
0
0
0
0
0
0
0
0
0
0
0
0
0
0
0
0
1
0
0
0
0
0
0
0
0
0
0
0
0
0
0
0
0
0
0
0
0
0
0
0
0
0
0
0
0
0
0
0
0
0
0
0
0
0
0
0
0
1
0
0
0
0
0
0
0
0
0
0
0
0
0
0
0
0
0
0
0
0
0
0
0
0
0
0
0
0
0
0
0
0
0
0
0
0
0
0
0
0
0
0
0
0
0
1
0
0
0
0
0
0
0
0
0
0
0
0
0
0
0
0
0
0
0
0
0
0
0
0
0
0
0
0
0
0
0
0
0
0
0
0
0
0
0
0
0
0
0
0
0
0
0
1
0
0
0
0
0
0
0
0
0
0
1
0
0
0
0
0
0
0
0
0
0
0
0
0
0
0
1
0
0
1
0
0
0
0
0
0
0
0
0
0
0
0
0
0
0
0
0
0
0
0
0
0
0
1
0
0
0
0
0
0
0
0
0
0
0
0
0
0
0
0
0
0
0
0
0
0
0
0
0
0
0
0
0
0
0
0
0
0
0
1
0
0
0
0
0
0
0
0
0
0
0
0
0
0
0
0
0
0
0
0
0
0
0
0
0
0
0
0
0
0
0
0
0
0
0
0
0
0
0
0
0
0
0
0
0
0
0
0
0
0
0
0
0
0
0
0
0
0
0
0
0
0
0
0
0
0
0
0
0
0
0
0
0
0
0
0
1
0
0
0
0
0
0
0
0
0
0
0
0
0
0
0
0
0
0
0
0
0
0
0
0
0
0
0
0
0
0
0
0
0
0
0
0
0
0
0
1
0
0
0
0
0
0
0
0
0
0
0
0
1
1
0
0
0
0
0
0
0
0
0
0
0
0
0
0
0
0
0
0
0
0
0
0
0
0
0
0
0
0
0
0
0
0
0
0
0
0
0
0
0
0
0
0
0
0
0
0
0
0
0
0
0
0
0
0
0
0
0
0
0
0
0
0
0
0
0
0
0
0
0
0
0
0
0
0
0
0
0
0
0
0
0
0
0
0
0
0
0
0
0
0
0
0
0
0
0
0
0
0
0
0
0
1
0
1
0
0
0
0
0
0
0
1
1
1
1
0
0
0
0
0
0
0
0
0
0
0
0
0
0
0
0
0
0
0
0
0
0
0
0
0
0
0
0
1
1
0
0
0
0
0
0
0
0
0
0
0
0
0
0
0
0
0
0
1
0
0
0
0
0
0
0
1
1
0
1
1
0
0
1
0
0
0
0
0
0
0
1
0
1
0
0
0
0
0
0
0
0
0
0
0
0
0
0
0
0
0
0
0
0
0
0
0
0
0
0
0
1
1
0
0
0
1
1
0
0
0
0
1
0
0
1
0
1
0
0
0
0
0
1
0
0
0
1
0
0
0
0
0
0
0
0
0
0
0
0
0
0
0
0
0
0
0
0
0
0
0
0
0
0
0
1
0
0
0
0
0
0
1
0
0
0
0
0
0
0
0
0
0
0
0
0
0
0
0
0
0
0
0
0
0
0
0
0
0
0
0
0
1
0
1
0
0
0
0
0
0
0
1
0
0
0
0
0
0
0
0
0
0
0
1
0
0
0
0
0
0
0
0
0
1
0
0
0
0
0
0
0
1
0
0
0
0
0
0
0
1
0
0
0
0
0
0
0
0
0
0
0
0
0
0
0
0
0
0
0
1
0
1
0
0
0
0
0
1
0
0
0
0
0
0
0
0
0
0
0
0
0
0
0
0
0
0
0
0
0
0
0
0
0
1
0
1
0
0
0
0
0
0
0
0
0
1
0
0
0
0
0
1
0
0
0
0
0
0
0
0
0
0
0
0
0
0
0
1
0
0
0
0
0
0
0
0
1
0
0
0
0
0
0
0
0
0
0
0
0
0
0
0
0
0
0
0
0
0
0
0
0
0
0
0
0
0
0
1
0
0
0
0
0
0
0
0
0
0
0
0
0
0
0
0
1
0
0
0
0
0
0
0
0
1
0
0
0
0
0
0
0
0
0
1
0
0
0
0
0
1
0
0
0
0
0
0
0
0
0
0
0
0
0
0
0
0
0
0
0
1
0
0
0
0
0
0
1
0
0
0
0
0
0
0
0
1
0
0
0
0
0
0
0
0
0
0
0
0
0
0
1
0
0
1
0
0
0
1
0
0
0
0
0
0
0
0
0
0
0
0
0
0
0
0
1
0
0
0
0
0
0
0
0
0
0
1
0
1
0
0
0
0
0
0
1
0
0
0
0
0
0
0
0
0
0
0
0
0
0
0
0
0
0
0
0
0
0
0
0
0
0
0
1
1
0
0
0
0
0
0
1
0
0
0
0
0
0
0
0
0
0
0
0
0
1
0
0
0
0
0
0
0
1
0
0
0
0
0
0
0
0
0
0
0
0
0
0
0
0
0
0
0
0
0
0
0
0
0
0
0
1
0
0
0
0
0
0
0
0
0
0
1
0
0
1
0
0
0
0
0
0
0
0
0
0
0
0
0
0
0
0
0
0
0
0
0
0
0
0
0
0
0
0
0
1
0
0
0
0
0
0
0
1
0
0
0
0
0
0
0
1
0
0
0
0
1
0
0
0
0
0
0
0
0
0
0
0
1
0
1
0
0
0
1
0
				</DataArray>
				<DataArray type="Float64" Name="h" NumberOfComponents="1" Format="ascii">
1.2000482914
1.2000464922
1.2021827760
1.1998124389
1.2026947776
1.2022366208
1.2010086530
1.1989350199
1.2009398282
1.1973955904
1.1992965419
1.2013787193
1.1983020591
1.1984063165
1.1990010632
1.1961687591
1.2002386968
1.1972830272
1.1995517052
1.1985924249
1.2030759800
1.1982359781
1.2010612663
1.2039457422
1.1995017201
1.1958471414
1.1990015594
1.2064605989
1.2028334547
1.1977756030
1.1979705490
1.2015458140
1.1975565506
1.2022595482
1.2076585736
1.2045103817
1.2051787822
1.2010299337
1.2060050579
1.2040015873
1.2031906013
1.2072329061
1.1997260170
1.2030365170
1.2047685138
1.2053487577
1.2016252837
1.2090705551
1.2191016002
1.2181661411
1.2043492275
1.2049486684
1.2035273747
1.2121569481
1.2067529555
1.1993575371
1.2057977130
1.2111917352
1.2121943173
1.2115334373
1.2141370243
1.2132182794
1.2182931101
1.2053588838
1.2036908126
1.2089185642
1.2171831169
1.2172750420
1.2131926355
1.2121829646
1.2122044423
1.2073100144
1.2006775882
1.2133177709
1.2126819287
1.2069135660
1.2113279864
1.2141690851
1.2100018924
1.2068841675
1.2159213548
1.2102538159
1.2218842202
1.2161900558
1.2047334046
1.2090370664
1.2167878617
1.2150188768
1.2149101966
1.2213409884
1.2172502339
1.2075322878
1.2150103183
1.2206863695
1.2109580235
1.2094841883
1.2136764107
1.2054007754
1.2071902486
1.2167497258
1.2213357374
1.2161061754
1.2126758192
1.2099589493
1.1959950988
1.2163045420
1.2115698242
1.2198996351
1.2140819879
1.2113106198
1.2199198614
1.2206850367
1.2163966524
1.2176610899
1.2140877032
1.2201932174
1.2129415445
1.1970247085
1.2194177383
1.2153503342
1.1962663533
1.2139229269
1.2093946631
1.1958500121
1.2167556811
1.2199732456
1.2142876331
1.1958697317
1.2197119121
1.2205421382
1.2189561416
1.2120245109
1.2155463085
1.2206279550
1.1966674449
1.2188067651
1.1946887085
1.2208526583
1.2178122801
1.1957190814
1.1959535288
1.1960013880
1.2195320708
1.1969899893
1.2099889506
1.2181535884
1.1948952053
1.2222151316
1.1959839110
1.2226850646
1.1941745959
1.2212089539
1.2212959095
1.2226932735
1.2169955613
1.2212006808
1.2225946213
1.1956347602
1.2225328600
1.1957884722
1.1958934620
1.2219909781
1.1941818867
1.1954034278
1.1958331711
1.2214716773
1.1984920443
1.1949645410
1.1957353404
1.2214657747
1.2222753111
1.1959412413
1.2226537524
1.1954426677
1.1988629263
1.2237597871
1.1972145454
1.2226810315
1.2235934263
1.1952626437
1.2210827607
1.2007848903
1.1955788362
1.2104500359
1.1956001228
1.1966748523
1.2002756043
1.2231555443
1.1959554096
1.1974762779
1.2029534577
1.2235569867
1.1961777601
1.2023227036
1.2236771407
1.2223646497
1.1946194999
1.2053659069
1.2045556417
1.2230323514
1.1975367293
1.2120928702
1.1969867119
1.2231155106
1.2080267749
1.1947133647
1.1942371594
1.1935318629
1.2070207198
1.1963283387
1.2019973551
1.1964948402
1.1947185164
1.1952905279
1.1937222389
1.2044503112
1.1950844366
1.1940786062
1.1998099155
1.1954977178
1.2097428877
1.2215355718
1.1979078395
1.2199261202
1.2132639132
1.2231209689
1.2225206973
1.2172445444
1.2109001566
1.2220957845
1.2229823384
1.2208211853
1.2153859671
1.2230961954
1.2230288729
1.2187722511
1.2027219791
1.1932958351
1.1960576462
1.1955437287
1.2016834995
1.1924749405
1.1937455288
1.1965402899
1.1931873792
1.1941657720
1.1944008338
1.2003481296
1.1927350120
1.1930170416
1.1942224365
1.1992966951
1.1937238327
1.2053784764
1.2043827250
1.1943368826
1.1951560930
1.1935250038
1.1952963059
1.2208603668
1.1972419205
1.2138976217
1.2180243685
1.2208732604
1.2148776459
1.2231191607
1.2235146438
1.2101268123
1.2231493162
1.2225298192
1.2233505103
1.1982799204
1.2221962343
1.2184608089
1.2198574610
1.2113818749
1.2161175408
1.2195992506
1.2218290132
1.2126362067
1.2226243192
1.2233463424
1.2232005404
1.2235773641
1.2230264475
1.2216189966
1.2168245914
1.1921798395
1.1933213593
1.1925703271
1.1931823754
1.2025323221
1.1912643517
1.1921434335
1.1946654400
1.2014072643
1.1957728750
1.1915446298
1.1917791143
1.1943421857
1.1931614255
1.1924873183
1.1999296744
1.2043653044
1.2054367310
1.1932139223
1.1987839104
1.1942723397
1.1925761760
1.2145866325
1.2193513106
1.2189457587
1.2235297452
1.2105604902
1.2243727624
1.2218631452
1.1965277105
1.2232030199
1.2241609239
1.1976660964
1.2219312375
1.2155992418
1.2236595865
1.2237985566
1.2169380456
1.2176416880
1.2206036473
1.2237292703
1.2207606420
1.2226561062
1.2235537087
1.2243657376
1.2238496920
1.2119111194
1.2229441729
1.2132318752
1.2241222139
1.1920590859
1.2275729889
1.1937401239
1.2011911889
1.1949524590
1.1920524778
1.2023891586
1.1898678449
1.1909389731
1.1908760441
1.1911909026
1.2290354388
1.2190910178
1.2044158241
1.2271284143
1.1912646820
1.1912756379
1.2297891516
1.1921145861
1.2227590644
1.1983061473
1.1932859644
1.2294740052
1.2287551999
1.2291788307
1.1931659145
1.1995381713
1.2055475370
1.1902000330
1.2127675502
1.2176990402
1.2239293998
1.1917628083
1.2270941727
1.2307934274
1.1903636907
1.2250539575
1.2229896311
1.2231271392
1.2247074184
1.1834961414
1.2255846402
1.2153319696
1.2110490039
1.2243615815
1.2241594364
1.1958102796
1.2249300508
1.1970451224
1.2164040053
1.2203782820
1.2199619311
1.1885874472
1.2246027807
1.2124966896
1.2218471352
1.2069607302
1.2253875173
1.2241882527
1.1809752046
1.1826889248
1.1841015029
1.1987485963
1.2178278918
1.2246639285
1.1949842410
1.2238187136
1.2027753981
1.2245025890
1.2253823598
1.2138902053
1.2185685427
1.1915731650
1.2217251591
1.2160965633
1.2265749839
1.2199755955
1.1908449936
1.2287649259
1.2274194989
1.1941259552
1.2281260220
1.2181768832
1.2133410107
1.2091646361
1.1894341875
1.2290451700
1.2299690548
1.2243769243
1.2267721478
1.1905848319
1.2304478492
1.2023143623
1.2217122818
1.2309915093
1.2286228533
1.2308038794
1.2251384378
1.2257330145
1.2344107341
1.2271498713
1.2271967414
1.2138365141
1.2207784604
1.2295863479
1.1899112786
1.2326937955
1.2189981918
1.1922501240
1.2206384766
1.2245638309
1.2256599016
1.2321689113
1.2300849538
1.2261667881
1.1917663926
1.2153414299
1.1991973348
1.2091666027
1.2330273635
1.2326731954
1.2262759823
1.2335847977
1.1897847295
1.2057311982
1.1895877310
1.2250373578
1.1964533871
1.2242642133
1.2227062996
1.2172718138
1.2014113644
1.1878528770
1.2258420178
1.1933353308
1.2256777483
1.1989407052
1.2115908977
1.2215079700
1.2359183360
1.1900385585
1.1888971767
1.1824361630
1.1818185057
1.2059778280
1.1884676835
1.2255178105
1.2376963310
1.2364440174
1.2259540222
1.1819116945
1.2230646120
1.1809979200
1.2219258598
1.2145994254
1.2372681586
1.1880863749
1.1809783036
1.1860841216
1.1912150332
1.2382568803
1.2251264004
1.1793531301
1.2336145682
1.2354107889
1.1870159274
1.1841039353
1.1987494280
1.1959251243
1.2195788689
1.1901323625
1.2098264677
1.2256186359
1.1819086666
1.2023182119
1.2305960493
1.1933374617
1.2142020535
1.1888997217
1.2314484303
1.2174648154
1.1877971066
1.1919469937
1.2023204308
1.2237283720
1.2214464152
1.2283818488
1.1882629926
1.2338482927
1.1748458253
1.2272864549
1.2099555834
1.2010149140
1.2313368047
1.1895906281
1.2283989824
1.1866301727
1.1878559590
1.1989217646
1.1880888255
1.1912174567
1.1901352609
1.2099560823
1.2059801890
1.1948418924
1.1816800590
1.1890923732
1.1875004094
1.1898496801
1.1778286698
1.1989427518
1.1910080004
1.1794398555
1.2329537979
1.1843786054
1.1871942491
1.2074349209
1.1869445361
1.2116695408
1.2047610170
1.1777225539
1.2326035197
1.2324114265
1.1975747834
1.1767198229
1.2326729313
1.1884708516
1.2031528106
1.2271500519
1.1959270581
1.2227049030
1.2286945019
1.2261683469
1.1945352313
1.2252100262
1.2342507003
1.2281106186
1.2181784709
1.1857641465
1.2121713128
1.2183023853
1.2305961833
1.1973801069
1.1887799566
1.2256580879
1.2336149430
1.1709590995
1.2221767644
1.1848481075
1.2271984734
1.2265738831
1.2206386260
1.1723131734
1.2267738110
1.1975414978
1.1844884845
1.2032473630
1.1752967776
1.2153445020
1.2010770126
1.1870869917
1.2370706536
1.1935040911
1.2056576394
1.1940491326
1.2363619178
1.1869226538
1.2243748913
1.1799900259
1.1907900857
1.2373330880
1.2274205360
1.1629874064
1.1869276778
1.1846287687
1.2366133201
1.1694585184
1.2183025816
1.1856103649
1.2289969282
1.1866336945
1.1945374060
1.2010168806
1.1882660775
1.2320517296
1.2157668667
1.1849383730
1.1878001859
1.1911669589
1.1651752935
1.2399604242
1.1869475677
1.1755972501
1.1907903612
1.1687172531
1.1792011665
1.2047627507
1.1919495031
1.1975768882
1.1871977298
1.2372320527
1.2406826143
1.2342963527
1.2257586095
1.1890955897
1.1868155581
1.1948451007
1.1987250286
1.2362478490
1.2354624577
1.2074349451
1.1833149075
1.2376367225
1.1634023944
1.1893485319
1.1848358817
1.1844400256
1.1602058495
1.1951866895
1.2025713087
1.1898521623
1.2352254100
1.1871634170
1.1861215718
1.1839649887
1.2318523066
1.2388110651
1.2409816414
1.2328004730
1.1609623845
1.1920376130
1.1841022099
1.1855156490
1.2398410211
1.2403249763
1.1989222109
1.1829448368
1.1948394105
1.1721242640
1.2376076493
1.1708943485
1.1744199180
1.2434786677
1.2425369319
1.1897159925
1.1859574992
1.2390566486
1.1822200786
1.1794692388
1.1670796158
1.2412055321
1.2428611474
1.2424039347
1.1790757793
1.1762610957
1.1643784875
1.1680907063
1.1713887484
1.2406399691
1.2422446584
1.2363093876
1.2386573132
1.1595804500
1.2434645194
1.2445330351
1.1645389074
1.2406824735
1.2390127270
1.1629884812
1.2449852481
1.1843799431
1.2422795216
1.1758015363
1.1776076223
1.2447648072
1.1694597160
1.2438104531
1.2420681077
1.1767229097
1.2408608382
1.1732719137
1.1691587926
1.2399766541
1.2393227679
1.1793770302
1.2008344888
1.2011798692
1.2011779854
1.2008299730
1.2008738176
1.2013763908
1.1992935404
1.1997119105
1.2025617312
1.2022370235
1.2026932413
1.2025588849
1.2009390863
1.1990003960
1.2010078463
1.1980467989
1.1997140601
1.2008758124
1.1985634219
1.1972795693
1.1998162715
1.2021835407
1.1995567663
1.1977713057
1.1968369728
1.2012179922
1.1989364723
1.1958419071
1.1994966585
1.1973999628
1.1980955758
1.1983024358
1.2032161057
1.1965041533
1.1998981381
1.1980507154
1.1979654022
1.1985642426
1.2022558122
1.1975588622
1.2015555342
1.1977974371
1.2040016216
1.2050411905
1.2002439645
1.1961722717
1.1997401030
1.2060245687
1.2012211351
1.1968403795
1.2031969838
1.1984106425
1.1985986132
1.2032172133
1.2010477995
1.2092883395
1.1982315338
1.2052871167
1.1980945640
1.2030777957
1.1998897971
1.1994033916
1.2078407944
1.2090703510
1.1965060299
1.2047709421
1.2043467670
1.2016433631
1.2064428577
1.2039446021
1.2028237836
1.2058098752
1.2037317276
1.1989907097
1.2062721023
1.1970752977
1.2050206855
1.2076952934
1.2075578671
1.1977923670
1.2035410483
1.2092881586
1.2190464593
1.2173882129
1.1993924986
1.2052874760
1.2062395928
1.2078313416
1.2045064698
1.2037129195
1.2010097696
1.2085766169
1.2076587510
1.2182888429
1.2172670747
1.2082326179
1.2051797935
1.2053650407
1.2076917546
1.2106149771
1.2111037042
1.2030171768
1.2133139802
1.2112094616
1.2073121169
1.2006948147
1.2121862348
1.2026795063
1.2030266365
1.2062716817
1.2142276366
1.2075582391
1.2072289389
1.2113279192
1.2122040167
1.2135498898
1.2126800526
1.2037089210
1.2015302673
1.2131927020
1.2065397179
1.1970791803
1.2121836730
1.2062381792
1.2085759500
1.2085142855
1.2082259290
1.2162960494
1.2095087171
1.2181259239
1.2191074450
1.2049406569
1.2173941036
1.2053315126
1.2102578143
1.2161814921
1.2095800384
1.2190551110
1.2181755172
1.2141360516
1.2132169913
1.2015087329
1.2150864364
1.2135529885
1.2121948930
1.2107392542
1.2112101701
1.2053838335
1.2012189646
1.2106151198
1.2065409261
1.2090264177
1.2067494606
1.2131705736
1.2121855957
1.2142264997
1.1993442758
1.2105973671
1.2129018264
1.2026610163
1.2121565302
1.2111042059
1.2115340185
1.2075441161
1.2111913699
1.2030029069
1.2150107168
1.2163025353
1.2099592724
1.2072060935
1.2095784328
1.2032291667
1.2095078759
1.2161078290
1.2172516439
1.2160131730
1.2151691011
1.2089092173
1.2213358176
1.2171934554
1.2087117533
1.2054194560
1.2151886405
1.2094932048
1.2099542536
1.2181379870
1.2167510906
1.2162948808
1.2085028797
1.2218916764
1.2105941412
1.2140810812
1.2206785569
1.2150856416
1.2129030770
1.2163958250
1.2090251895
1.2069030467
1.2199085741
1.2107397167
1.2141693885
1.2012015184
1.2173723964
1.2053727349
1.2199074356
1.2113153376
1.2131704667
1.2160126276
1.2218876335
1.2118718706
1.2151868825
1.2090279072
1.2139209616
1.2146561360
1.2087118038
1.1964663046
1.2099530523
1.2151742145
1.2047182321
1.2068685910
1.2167861446
1.2218811986
1.2159197212
1.2129418444
1.2100017638
1.2172637435
1.1962606232
1.2150249486
1.2032135428
1.2173710120
1.2120273532
1.2190197052
1.1954311555
1.2199719836
1.2159081468
1.2178820731
1.2149117886
1.2109530379
1.2206962932
1.2201444187
1.2213439979
1.2172493503
1.2192615065
1.2110303297
1.2167516217
1.2142839828
1.2199238106
1.2205455517
1.2126756815
1.2207651771
1.2190037192
1.2118714068
1.1964715870
1.2146589190
1.2184136536
1.1966623766
1.2188085570
1.2155421873
1.1960004716
1.2136786787
1.2099946165
1.2180025079
1.1959963234
1.2165347468
1.1954371875
1.2201412238
1.2176625464
1.2199029090
1.1951057485
1.2110293293
1.2178821807
1.2140912361
1.1959787378
1.2190346317
1.2195352997
1.1957180513
1.2201889638
1.2159094985
1.2181560073
1.2192615991
1.2115665155
1.1963572067
1.2077864055
1.2179222739
1.2216989211
1.2207626647
1.2184164252
1.1945238833
1.2203031137
1.2206602696
1.2175882517
1.2153554465
1.2190203435
1.2212122404
1.1970295262
1.2183162845
1.2194165277
1.1971866278
1.1941684018
1.2212999286
1.2169978234
1.1951124990
1.1957229405
1.1949599476
1.1958279359
1.2165397853
1.2222242269
1.1963622251
1.1957587857
1.2225108389
1.2167970811
1.2180162662
1.1958549792
1.2197084457
1.1958932235
1.1959452047
1.2093878878
1.2189537106
1.1967551463
1.1941750245
1.2190390855
1.2219956928
1.1958747313
1.2225367744
1.2175857359
1.1946964437
1.2206244397
1.2216733798
1.2160841920
1.2206586047
1.2207576452
1.2208483782
1.2226571179
1.1972928345
1.1952197817
1.2178097402
1.1971915302
1.2179359509
1.1945292394
1.2216952221
1.2077796638
1.2183136678
1.2214701756
1.2193223671
1.2202994120
1.2222786884
1.1954375076
1.2226812015
1.1955738796
1.2147319264
1.1959505940
1.1957636794
1.2213369152
1.2220279133
1.2228564545
1.1969857292
1.2222105680
1.1949005012
1.1952578074
1.2225066405
1.1967603138
1.2168047374
1.1954026710
1.1959586490
1.2210875900
1.2190359368
1.1972202363
1.2186269161
1.1957210415
1.2222201181
1.1957604722
1.1959506443
1.2211958762
1.2225910711
1.1952242055
1.2142343156
1.2216691220
1.1963602766
1.1972984639
1.2160921177
1.1955950838
1.2207531764
1.2226897977
1.1956395905
1.2193193844
1.2002882940
1.2126629491
1.2236799609
1.1984816811
1.1957652993
1.2213324908
1.2223698510
1.1954074331
1.2228529014
1.2186241515
1.2219597543
1.1960272190
1.2220238880
1.2147343250
1.1956109338
1.2235600134
1.2200179133
1.1954079692
1.2214669807
1.2023340377
1.2227380593
1.1957933202
1.2120969228
1.2234075804
1.1959462017
1.1969815758
1.1988527560
1.2231183477
1.2142349954
1.1957400939
1.1975314396
1.1963654259
1.2045640143
1.2232013445
1.2235903706
1.1952983692
1.1960320805
1.1956157861
1.1964897157
1.2227336912
1.2219547433
1.1949297952
1.2223343790
1.2007739646
1.2200148480
1.2237568207
1.2126608359
1.1967201174
1.1969461408
1.2226762246
1.1947138474
1.2070267156
1.2029450521
1.2229850017
1.2234050316
1.1974816385
1.2231990961
1.2229163347
1.2231157449
1.2104448419
1.1966797684
1.2231525114
1.2097479635
1.1943959603
1.1941625131
1.1943428501
1.1931826173
1.2053602768
1.1969515633
1.2071731898
1.1959309388
1.1965432586
1.1936707049
1.1953029325
1.2027240282
1.1961829102
1.1962760281
1.2223291708
1.1946241979
1.1955674071
1.1935201646
1.1932883291
1.2053797646
1.1951559072
1.1937194610
1.2003518170
1.1967257445
1.1960517009
1.1949346527
1.2229321353
1.2082857755
1.2080222348
1.2229135065
1.2216042685
1.1982843160
1.2231139169
1.2198419956
1.2126413767
1.2232033168
1.2226223984
1.2228302648
1.2168221845
1.2101294568
1.2221875425
1.2230309296
1.2208428709
1.2148812681
1.2231499696
1.2229309245
1.2231233740
1.2184509088
1.2019923243
1.1931798123
1.1925729455
1.1955028445
1.1957734494
1.2025316763
1.1936752626
1.2071701112
1.1943476369
1.1952645738
1.2073601489
1.1921400211
1.1933171510
1.1959361008
1.1963253455
1.1935368893
1.1942413716
1.1947182743
1.1998034957
1.1924838736
1.1925726753
1.1962817259
1.1942714335
1.1999299196
1.1940830895
1.2044467400
1.2054351840
1.1921619823
1.1947199321
1.1950856277
1.1932927149
1.1937277703
1.1955730881
1.2208377080
1.1976670160
1.2085853185
1.2132354480
1.2176450401
1.2207512883
1.2153846537
1.2229280187
1.2230242931
1.2237309369
1.2108965355
1.2230952645
1.2235277000
1.2226418637
1.2235476513
1.1979020621
1.2229293084
1.2221009051
1.2187832130
1.2199423238
1.2105593355
1.2156049587
1.2193486292
1.2218494796
1.2132595477
1.2225194339
1.2228257830
1.2235295612
1.2082849584
1.2231182986
1.2238003182
1.2231918469
1.2237430865
1.2215476627
1.2172490124
1.1920565321
1.1913350146
1.1937498924
1.1952696703
1.1920490128
1.1932989087
1.2016820392
1.2076060312
1.1908733513
1.2073605954
1.1924787164
1.1949513064
1.2023863189
1.1955423296
1.1925764822
1.1912617807
1.1912728944
1.1947253598
1.1936619060
1.1927389269
1.1992941764
1.2055435188
1.1908767180
1.2043819318
1.1921652025
1.1932841997
1.1995363411
1.1942234458
1.1930207802
1.2138895124
1.2196048117
1.2185732646
1.2233463062
1.2113804333
1.2246571564
1.2218446231
1.1970439290
1.2230356949
1.2237441120
1.2244445063
1.2245024656
1.2089426142
1.1972391780
1.2218451341
1.2161126357
1.2238098937
1.2235740529
1.2164073406
1.2180234027
1.2203807802
1.2235124661
1.2085877194
1.2247646243
1.2208853470
1.2225441286
1.2233535080
1.2247064125
1.2241583879
1.2110441348
1.2229832665
1.2138928924
1.2243527401
1.2235260018
1.2287639470
1.2217116294
1.2079128556
1.2281269020
1.1921824230
1.1913376717
1.2282625301
1.2301591587
1.1941237409
1.2206681517
1.2023104363
1.1946654266
1.2285334499
1.2290449660
1.2291832072
1.1925740447
1.2014082694
1.2076100205
1.1894314840
1.1908421496
1.1912672096
1.2160952319
1.2143851496
1.2257340727
1.1905818733
1.2254327042
1.2300377845
1.1899214813
1.2284495039
1.2197278150
1.2057263968
1.2270200050
1.1915476626
1.1917820636
1.2275515000
1.2305181596
1.1922476701
1.2232549093
1.1991943445
1.1932152368
1.2297348520
1.2283640208
1.2283815369
1.1936668694
1.1987839466
1.2043673747
1.1893939205
1.1899083177
1.1908791361
1.2137656593
1.2168187967
1.2241786102
1.1923722161
1.2271912346
1.2302539812
1.1897823510
1.1905224287
1.2255163870
1.2093612038
1.2229540815
1.2029830496
1.2255748651
1.2230666998
1.2243647275
1.1824330545
1.1809679018
1.1840261704
1.2259498628
1.1809952045
1.1948789724
1.2145959750
1.2247682229
1.2119127753
1.1973044574
1.2241317407
1.2053546082
1.2238503723
1.1964510057
1.2251240478
1.1965272220
1.2169329268
1.2206033031
1.1879737093
1.2195812092
1.1870144971
1.2250357746
1.2115851657
1.2219365735
1.2056558511
1.2258397909
1.2242640692
1.2244459017
1.1837055400
1.1822742846
1.1811122002
1.2259930056
1.1825000592
1.1973237774
1.2172714377
1.2243782771
1.2089474425
1.1935022600
1.2236710061
1.2014100977
1.2241599708
1.2256739721
1.2145842292
1.2189412996
1.1900373293
1.2215112269
1.2169221021
1.2334893063
1.2263393090
1.2269142020
1.2174640199
1.2206693379
1.2237281398
1.2277338101
1.1909415452
1.2281134830
1.2314763894
1.2269810437
1.2281125399
1.2153830487
1.1937411937
1.2278660552
1.2187686475
1.2143863398
1.2221541583
1.2103115221
1.2222921726
1.1898704203
1.2285471716
1.2291836210
1.2244280249
1.2326038359
1.2278665755
1.2313368963
1.2261926536
1.1911941339
1.2131232061
1.2300369871
1.2011938683
1.2127688392
1.2133401066
1.2329541838
1.2324114439
1.2221541424
1.2283988769
1.2318518961
1.2285325379
1.2301592554
1.2339061268
1.1899238114
1.2079185296
1.2254326693
1.2257960082
1.2299685980
1.2190919465
1.2338843542
1.2268021901
1.2304486340
1.2266394019
1.2149408820
1.2176996340
1.2215406135
1.2298238480
1.1902028704
1.2282634496
1.2328664410
1.2274222240
1.2179731867
1.1921163578
1.2287540383
1.2210429917
1.2107852731
1.2107839178
1.2252161922
1.1893961602
1.2290357654
1.2297896981
1.2255574753
1.2317670351
1.2300396185
1.2256087842
1.1923765650
1.2161189601
1.2251378299
1.2294733641
1.1983077978
1.2103135476
1.2320522731
1.2319968932
1.2239287641
1.2266368902
1.2310190529
1.2271905202
1.2302543147
1.2343848980
1.1903661748
1.2044197571
1.2232550971
1.2271266162
1.1896179881
1.2246038102
1.2366132237
1.2363621287
1.2259964449
1.1958113002
1.1818213531
1.2241915970
1.1825026883
1.2252100011
1.2229283718
1.2178253876
1.2027764586
1.2370710270
1.1883224036
1.1809705294
1.1883131836
1.2253883990
1.1851495574
1.1928185693
1.2376367477
1.2253885748
1.1803813513
1.2318407286
1.2361354908
1.1905244409
1.1826916938
1.2012214196
1.2012222745
1.1978949937
1.2125003568
1.2217219921
1.2350068219
1.1915739588
1.1988264444
1.1896037787
1.1834994894
1.2121681191
1.2232435072
1.1803294402
1.1797979272
1.2045479300
1.1797484464
1.2326450884
1.1887375160
1.2250543487
1.2373330973
1.2358134277
1.2255895605
1.1825703133
1.2231269896
1.1811150392
1.2228746145
1.2153326155
1.1988272872
1.2362486610
1.1887545138
1.1822772198
1.1877311588
1.2255776393
1.1844863290
1.1909759713
1.2375423481
1.2249357577
1.1803323069
1.2338717428
1.2351304159
1.1885878847
1.1840287455
1.1973246428
1.1878202804
1.1951359007
1.2093664368
1.2199578087
1.2351374887
1.1879744745
1.1908510182
1.1837082957
1.1829969587
1.2082859527
1.2265005850
1.1827372408
1.1803784218
1.2010521975
1.2309393236
1.2015951237
1.1883250163
1.1928203721
1.2153832380
1.1896065673
1.2314762071
1.2138365182
1.2082899923
1.1908656940
1.2184082511
1.1780856493
1.1869817040
1.1837647663
1.2316303241
1.1926280943
1.2242935592
1.1781221989
1.2010546959
1.1934083367
1.2242942056
1.2241775133
1.2222926455
1.1811161743
1.2285464058
1.2275524283
1.2142018727
1.2137669794
1.2316303547
1.1863916268
1.1883422203
1.2334889866
1.2283646875
1.2101931040
1.1767139840
1.2169200425
1.1865520117
1.2277340116
1.2270938958
1.2111980792
1.2075018873
1.2308036703
1.2087129678
1.1740724879
1.2275740771
1.2345791075
1.2168199178
1.2311044395
1.2338586683
1.2024070318
1.1780872357
1.2311039674
1.2320537970
1.1896209325
1.1989956133
1.2285532541
1.1861741656
1.1883162474
1.2307924133
1.1974860149
1.1887569349
1.1909782547
1.2115054389
1.1908545700
1.2298238296
1.2111986798
1.2272856339
1.2045508160
1.1933862409
1.2207782573
1.1799568258
1.1882540567
1.1859558711
1.1902313983
1.1759695904
1.1978969650
1.1895186920
1.2199742028
1.2262757903
1.2189986767
1.1776059679
1.2291789005
1.2338480052
1.2318516959
1.1827529445
1.1869856937
1.2326935697
1.2060258084
1.1740393216
1.1861887818
1.2252164710
1.2338590477
1.2115049492
1.2102768648
1.2062845613
1.1757996339
1.2338842032
1.2335845757
1.1987809139
1.1747967255
1.2321681126
1.2339058881
1.1887407713
1.2017297438
1.2300843320
1.1859119734
1.1877339121
1.2268045974
1.1951375992