<VTKFile type="UnstructuredGrid" version="0.1">
	<UnstructuredGrid>
		<Piece NumberOfPoints="1862" NumberOfCells="3498">
			<CellData>
				<DataArray type="Int32" Name="type" NumberOfComponents="1" Format="ascii">
0
0
0
0
0
0
0
0
0
0
0
0
0
0
0
0
1
0
0
1
0
0
0
0
0
0
0
0
0
0
0
0
0
1
0
0
0
0
0
0
0
0
0
0
0
0
0
0
0
0
1
0
0
0
0
0
0
0
0
0
0
1
0
0
0
0
0
0
0
0
0
0
0
0
0
0
0
0
0
0
0
0
0
0
0
0
0
0
0
0
0
0
0
0
0
0
0
0
0
0
0
0
0
0
0
0
0
0
0
0
0
0
0
0
0
0
0
0
0
0
0
0
0
1
0
0
0
0
0
0
0
0
0
0
0
0
0
0
0
0
0
0
0
0
0
0
0
0
0
0
0
1
0
1
1
0
0
0
0
0
0
0
0
0
0
0
0
0
1
0
1
0
0
0
0
1
0
0
0
0
0
0
0
0
1
1
0
0
0
0
0
1
0
0
0
0
0
0
0
0
1
0
0
0
0
0
0
0
0
0
0
0
0
0
0
0
0
0
0
0
0
0
0
0
0
0
0
0
0
0
0
0
0
1
0
0
0
0
0
0
0
0
0
0
0
0
0
0
0
0
0
0
0
0
0
0
0
0
0
0
0
0
0
0
0
0
0
0
0
0
0
0
0
0
0
0
0
0
0
0
0
1
0
0
0
0
0
0
0
0
0
0
0
0
0
0
0
0
0
0
0
0
0
0
0
0
0
0
0
0
0
0
0
0
0
0
0
0
0
0
0
0
0
0
0
0
0
0
0
0
0
0
1
0
0
0
0
0
0
0
0
0
0
0
0
0
0
0
0
0
0
0
0
0
0
0
0
0
0
0
0
0
0
0
0
0
0
0
0
0
0
0
0
0
0
0
0
0
0
0
0
0
0
0
0
0
0
0
0
0
1
0
0
0
0
0
0
0
0
0
0
0
0
0
0
0
0
0
0
0
0
0
0
0
0
0
0
0
0
0
0
0
0
0
0
0
0
0
0
0
0
0
0
0
0
0
0
0
0
0
0
0
0
0
0
0
0
0
0
0
0
0
0
0
0
0
0
0
0
0
0
0
0
0
0
0
0
0
0
0
0
0
0
0
0
0
0
0
0
0
0
0
0
0
0
0
0
0
0
0
0
0
0
0
0
0
0
0
0
0
0
0
0
0
0
0
0
0
0
0
0
0
0
0
0
0
0
0
0
0
0
0
0
1
0
0
0
0
0
0
0
0
0
0
0
0
0
0
0
0
0
0
0
1
0
0
0
0
0
0
0
0
0
0
0
0
0
0
0
0
0
0
0
0
0
0
0
0
0
0
0
0
0
0
0
0
0
0
0
0
0
0
0
0
0
0
0
0
0
0
0
0
0
0
0
0
0
1
0
0
0
0
0
0
0
0
0
0
0
0
0
0
0
0
0
0
0
0
0
0
0
1
0
0
0
0
0
0
0
0
0
0
0
0
0
0
0
0
0
0
0
1
0
0
0
1
0
0
0
0
0
0
0
0
0
0
0
0
0
0
0
0
0
0
0
0
0
0
0
0
0
1
0
0
0
0
0
0
0
1
0
0
0
0
0
0
0
0
0
0
0
0
0
0
0
0
0
0
0
0
0
0
0
0
0
0
1
0
0
0
0
0
0
0
1
0
0
0
0
0
0
1
0
0
0
0
0
0
0
0
0
0
0
0
0
0
0
0
0
0
0
0
0
0
0
0
0
0
0
0
0
0
0
0
0
0
0
0
0
0
1
0
0
0
0
0
1
0
0
0
0
0
0
0
1
0
0
0
0
0
0
0
0
0
0
0
0
0
1
0
0
0
0
0
0
0
0
0
0
0
0
0
0
0
0
0
0
0
0
0
0
0
0
0
0
0
0
0
0
0
0
0
0
0
0
0
0
0
0
0
0
0
0
0
0
0
0
0
0
0
0
0
1
0
0
0
0
0
0
0
0
0
0
0
0
0
0
0
0
0
0
0
1
0
0
0
0
0
0
0
0
0
1
0
0
0
0
0
0
0
0
0
0
0
0
0
0
0
0
0
0
0
0
0
0
0
0
0
0
0
0
0
1
0
1
0
0
0
0
0
0
0
0
0
0
0
0
0
0
0
0
0
0
0
0
0
0
0
0
0
0
0
1
0
0
0
1
0
0
0
0
0
0
0
0
0
0
0
0
0
0
0
0
0
0
0
0
0
0
0
0
0
0
0
0
1
0
0
0
0
0
0
0
0
0
0
0
0
0
0
0
0
0
0
0
0
0
0
0
0
0
1
0
0
0
0
0
0
0
0
0
0
0
0
0
0
0
0
0
0
0
0
0
0
0
1
0
0
0
0
0
0
1
0
0
0
0
0
0
0
0
0
0
0
1
0
0
0
0
0
0
0
0
0
0
0
0
0
0
0
0
0
0
0
0
1
0
0
0
0
0
0
0
0
0
0
0
1
0
0
0
0
0
0
0
0
0
0
0
0
0
0
0
0
0
0
0
0
0
1
0
0
0
0
0
0
0
0
0
1
1
0
1
0
1
0
0
0
0
0
0
0
0
0
0
0
1
0
0
0
0
0
1
1
0
0
0
0
0
0
1
0
0
0
0
0
1
1
1
0
0
0
0
0
0
0
0
0
0
0
0
1
1
0
0
1
0
0
0
0
0
1
0
0
0
1
0
1
0
0
0
0
0
0
0
1
0
0
0
0
0
0
0
1
0
0
1
0
0
0
0
0
0
0
0
0
0
0
0
0
0
0
1
0
0
0
0
0
0
0
0
0
0
0
0
0
0
0
0
0
0
0
0
0
0
0
0
0
0
0
0
0
0
0
0
0
0
0
0
1
0
0
0
0
0
0
1
0
0
0
1
0
0
0
0
0
0
0
0
0
0
0
1
0
0
0
0
0
0
0
0
0
0
0
0
0
0
0
0
0
0
0
0
0
0
0
0
0
0
0
0
0
0
0
0
0
0
0
0
0
0
0
0
1
1
0
0
0
0
0
0
0
0
0
0
0
0
0
1
0
0
0
0
0
0
0
0
0
0
0
0
0
0
0
0
0
0
0
0
0
0
0
0
0
0
0
0
0
0
0
0
0
0
0
0
0
0
0
0
0
0
0
0
0
0
0
0
0
0
0
0
0
0
0
0
0
0
0
0
0
0
0
0
0
0
0
0
0
0
0
0
1
1
0
0
0
0
0
0
0
0
1
0
0
0
0
0
0
0
0
0
0
0
0
0
0
0
0
0
0
0
0
0
0
0
1
0
0
0
0
0
0
0
0
0
0
0
0
0
0
0
0
1
0
0
0
0
0
0
0
0
0
0
0
0
0
0
0
0
0
0
0
0
0
0
0
0
0
0
0
0
0
0
0
0
0
0
0
0
0
0
0
0
0
0
0
0
0
0
0
0
0
0
0
0
0
0
0
0
0
0
0
0
0
0
0
0
0
0
0
0
0
0
0
0
0
0
0
0
0
0
0
0
0
0
0
0
0
0
0
0
0
0
1
1
0
0
0
0
0
1
0
0
0
0
0
0
0
0
0
0
0
0
1
0
0
0
0
0
0
0
0
0
0
0
0
0
0
0
0
0
0
0
0
0
0
0
0
0
0
0
0
0
0
0
0
0
0
0
0
0
0
0
0
0
0
0
0
0
0
0
0
0
0
0
0
0
1
0
1
0
0
0
0
0
0
0
0
0
0
0
0
0
0
0
0
0
0
1
0
0
0
0
0
0
0
0
0
0
0
0
0
0
0
0
0
0
0
0
0
0
0
0
0
0
0
0
0
0
0
0
0
0
0
0
0
0
0
0
0
0
0
0
0
0
0
0
0
0
0
0
0
0
0
0
0
0
0
0
0
0
0
0
0
0
0
0
0
0
1
0
0
0
0
0
0
0
0
0
0
1
0
0
0
0
0
0
0
0
0
0
0
0
0
0
0
0
0
0
0
0
0
0
0
0
0
0
0
0
0
0
0
0
0
0
0
0
0
1
0
0
0
0
0
0
0
0
0
0
0
0
0
0
0
0
0
0
0
0
0
0
0
0
0
0
0
0
0
0
0
0
0
0
0
0
0
0
0
0
0
0
0
0
0
0
0
0
0
0
0
0
0
0
0
0
0
0
0
0
0
0
0
0
0
0
0
0
0
0
0
0
0
0
0
0
0
0
0
0
0
1
0
0
0
0
0
0
0
0
0
0
0
0
0
0
0
0
0
0
0
0
0
0
0
0
0
0
0
0
0
0
0
0
0
0
0
0
0
0
0
0
0
0
0
0
0
0
0
0
0
0
0
0
0
0
0
0
0
0
0
0
0
0
0
0
0
0
0
0
0
0
0
0
0
0
0
0
0
0
0
0
0
0
0
0
0
0
0
0
0
0
0
0
0
0
0
0
0
0
0
0
0
0
0
0
0
0
0
0
0
0
0
0
0
0
0
0
0
0
0
0
0
0
0
1
0
0
0
0
0
0
0
0
0
0
0
0
0
0
0
0
0
0
0
0
0
0
0
0
0
0
0
0
0
0
0
0
0
0
0
0
0
0
0
0
0
0
0
0
0
0
0
0
0
0
0
0
0
0
0
0
0
0
0
0
0
0
0
0
0
0
0
0
0
0
0
0
0
0
0
0
0
0
0
0
0
1
0
0
0
0
0
0
0
1
0
0
0
0
0
0
0
0
0
0
0
0
0
0
0
0
0
0
0
0
0
0
0
0
0
0
0
0
0
0
0
0
0
0
0
0
0
1
0
0
0
0
0
0
0
0
0
0
0
0
0
0
0
0
0
0
0
0
0
1
0
0
0
0
0
0
0
0
0
0
0
0
1
1
0
0
0
0
0
0
0
0
0
0
0
0
0
0
0
1
1
0
1
0
0
0
0
0
0
0
0
0
1
0
0
0
0
0
0
1
0
0
0
0
0
0
0
0
0
0
1
0
0
0
0
1
0
1
0
0
0
0
0
0
0
1
0
0
0
1
0
0
0
1
0
1
1
0
0
1
1
0
0
0
1
0
0
0
1
0
0
0
0
0
0
0
0
0
1
0
0
0
0
0
0
1
0
0
0
0
0
0
0
0
0
0
0
0
0
0
0
0
0
0
0
0
0
0
0
0
0
0
0
1
0
0
1
0
0
0
0
0
0
0
0
0
0
0
0
0
0
0
0
0
0
1
0
0
1
0
0
0
0
0
0
0
0
0
0
0
1
0
0
1
0
0
0
0
0
0
0
0
0
0
0
1
1
0
0
0
0
0
0
0
0
0
0
0
0
1
0
0
0
0
0
0
0
0
0
0
0
0
0
0
0
0
0
1
0
0
0
0
0
0
0
0
0
0
0
0
0
0
0
0
0
1
0
0
0
0
0
0
0
0
0
0
0
0
0
0
0
0
0
0
0
0
0
0
0
0
0
0
0
0
0
0
0
0
0
0
0
0
0
0
0
0
1
0
0
0
0
0
0
0
0
0
0
0
0
0
0
0
0
0
0
0
0
0
0
0
0
0
0
0
0
0
0
0
0
0
0
0
0
0
0
0
0
0
0
0
0
0
1
0
0
0
0
0
0
0
0
0
0
0
0
0
0
0
0
0
0
0
0
0
0
0
0
0
0
0
0
0
0
0
0
0
0
0
0
0
0
0
0
0
0
0
0
0
0
0
1
0
0
0
0
0
0
0
0
0
0
1
0
0
0
0
0
0
0
0
0
0
0
0
0
0
0
1
0
0
1
0
0
0
0
0
0
0
0
0
0
0
0
0
0
0
0
0
0
0
0
0
0
0
1
0
0
0
0
0
0
0
0
0
0
0
0
0
0
0
0
0
0
0
0
0
0
0
0
0
0
0
0
0
0
0
0
0
0
0
1
0
0
0
0
0
0
0
0
0
0
0
0
0
0
0
0
0
0
0
0
0
0
0
0
0
0
0
0
0
0
0
0
0
0
0
0
0
0
0
0
0
0
0
0
0
0
0
0
0
0
0
0
0
0
0
0
0
0
0
0
0
0
0
0
0
0
0
0
0
0
0
0
0
0
0
0
1
0
0
0
0
0
0
0
0
0
0
0
0
0
0
0
0
0
0
0
0
0
0
0
0
0
0
0
0
0
0
0
0
0
0
0
0
0
0
0
1
0
0
0
0
0
0
0
0
0
0
0
0
1
1
0
0
0
0
0
0
0
0
0
0
0
0
0
0
0
0
0
0
0
0
0
0
0
0
0
0
0
0
0
0
0
0
0
0
0
0
0
0
0
0
0
0
0
0
0
0
0
0
0
0
0
0
0
0
0
0
0
0
0
0
0
0
0
0
0
0
0
0
0
0
0
0
0
0
0
0
0
0
0
0
0
0
0
0
0
0
0
0
0
0
0
0
0
0
0
0
0
0
0
0
0
1
0
1
0
0
0
0
0
0
0
1
1
1
1
0
0
0
0
0
0
0
0
0
0
0
0
0
0
0
0
0
0
0
0
0
0
0
0
0
0
0
0
1
1
0
0
0
0
0
0
0
0
0
0
0
0
0
0
0
0
0
0
1
0
0
0
0
0
0
0
1
1
0
1
1
0
0
1
0
0
0
0
0
0
0
1
0
1
0
0
0
0
0
0
0
0
0
0
0
0
0
0
0
0
0
0
0
0
0
0
0
0
0
0
0
1
1
0
0
0
1
1
0
0
0
0
1
0
0
1
0
1
0
0
0
0
0
1
0
0
0
1
0
0
0
0
0
0
0
0
0
0
0
0
0
0
0
0
0
0
0
0
0
0
0
0
0
0
0
1
0
0
0
0
0
0
1
0
0
0
0
0
0
0
0
0
0
0
0
0
0
0
0
0
0
0
0
0
0
0
0
0
0
0
0
0
1
0
1
0
0
0
0
0
0
0
1
0
0
0
0
0
0
0
0
0
0
0
1
0
0
0
0
0
0
0
0
0
1
0
0
0
0
0
0
0
1
0
0
0
0
0
0
0
1
0
0
0
0
0
0
0
0
0
0
0
0
0
0
0
0
0
0
0
1
0
1
0
0
0
0
0
1
0
0
0
0
0
0
0
0
0
0
0
0
0
0
0
0
0
0
0
0
0
0
0
0
0
1
0
1
0
0
0
0
0
0
0
0
0
1
0
0
0
0
0
1
0
0
0
0
0
0
0
0
0
0
0
0
0
0
0
1
0
0
0
0
0
0
0
0
1
0
0
0
0
0
0
0
0
0
0
0
0
0
0
0
0
0
0
0
0
0
0
0
0
0
0
0
0
0
0
1
0
0
0
0
0
0
0
0
0
0
0
0
0
0
0
0
1
0
0
0
0
0
0
0
0
1
0
0
0
0
0
0
0
0
0
1
0
0
0
0
0
1
0
0
0
0
0
0
0
0
0
0
0
0
0
0
0
0
0
0
0
1
0
0
0
0
0
0
1
0
0
0
0
0
0
0
0
1
0
0
0
0
0
0
0
0
0
0
0
0
0
0
1
0
0
1
0
0
0
1
0
0
0
0
0
0
0
0
0
0
0
0
0
0
0
0
1
0
0
0
0
0
0
0
0
0
0
1
0
1
0
0
0
0
0
0
1
0
0
0
0
0
0
0
0
0
0
0
0
0
0
0
0
0
0
0
0
0
0
0
0
0
0
0
1
1
0
0
0
0
0
0
1
0
0
0
0
0
0
0
0
0
0
0
0
0
1
0
0
0
0
0
0
0
1
0
0
0
0
0
0
0
0
0
0
0
0
0
0
0
0
0
0
0
0
0
0
0
0
0
0
0
1
0
0
0
0
0
0
0
0
0
0
1
0
0
1
0
0
0
0
0
0
0
0
0
0
0
0
0
0
0
0
0
0
0
0
0
0
0
0
0
0
0
0
0
1
0
0
0
0
0
0
0
1
0
0
0
0
0
0
0
1
0
0
0
0
1
0
0
0
0
0
0
0
0
0
0
0
1
0
1
0
0
0
1
0
				</DataArray>
				<DataArray type="Float64" Name="h" NumberOfComponents="1" Format="ascii">
1.1872276245
1.1872350836
1.1852982947
1.1869847119
1.1850338747
1.1856011927
1.1861234839
1.1878864969
1.1867099369
1.1892849277
1.1875779050
1.1858655920
1.1879273830
1.1882894851
1.1877964555
1.1890643607
1.1864793494
1.1890231999
1.1872954453
1.1877798930
1.1845790055
1.1877046724
1.1859944793
1.1843431631
1.1870820072
1.1897491789
1.1865957150
1.1824426993
1.1850194099
1.1888204685
1.1883540936
1.1858275788
1.1878692991
1.1852275694
1.1819799133
1.1839585394
1.1832443668
1.1856199658
1.1823419167
1.1840993782
1.1847817741
1.1821895213
1.1864318646
1.1846046289
1.1837138943
1.1831620666
1.1854387382
1.1813783836
1.1755527062
1.1760407149
1.1839222707
1.1835933326
1.1844065546
1.1794141615
1.1825602848
1.1860349682
1.1829793180
1.1800889607
1.1795714768
1.1798324926
1.1785112358
1.1790233890
1.1759799178
1.1833794305
1.1839468211
1.1810159074
1.1765582857
1.1765156392
1.1790181407
1.1795673661
1.1794169521
1.1823813060
1.1852657206
1.1787434658
1.1791693720
1.1814090272
1.1799713496
1.1783935297
1.1806016163
1.1817826861
1.1775193474
1.1803048613
1.1740406514
1.1770760765
1.1826796766
1.1805417508
1.1771489808
1.1776310447
1.1779932318
1.1743197495
1.1767238480
1.1812356697
1.1779148676
1.1746855824
1.1797332879
1.1804274614
1.1783550991
1.1824169631
1.1817115654
1.1770410286
1.1743654597
1.1775794813
1.1789631874
1.1806817841
1.1905604227
1.1770621249
1.1792141512
1.1751115644
1.1784717717
1.1796460812
1.1751052843
1.1746992609
1.1771720398
1.1763786934
1.1782503191
1.1753481433
1.1788976853
1.1900478539
1.1755470156
1.1775882835
1.1904328729
1.1782652006
1.1800896647
1.1913355282
1.1769068308
1.1751298066
1.1781973143
1.1916389559
1.1757238748
1.1750547758
1.1759151302
1.1790849585
1.1775424636
1.1755020111
1.1900342881
1.1759057440
1.1905059762
1.1752117000
1.1767755597
1.1885945231
1.1919090433
1.1907409474
1.1755813545
1.1874601711
1.1799288835
1.1763298741
1.1895959353
1.1743438552
1.1910869753
1.1742964624
1.1909249059
1.1752547680
1.1749795004
1.1745288203
1.1771363200
1.1748079997
1.1749074276
1.1912259982
1.1744922045
1.1927932418
1.1881234490
1.1745593113
1.1901060836
1.1921513651
1.1914507103
1.1745202394
1.1862192506
1.1892271007
1.1922087772
1.1746583034
1.1749584030
1.1928139731
1.1747373776
1.1914407011
1.1856576922
1.1751154739
1.1869324780
1.1737918330
1.1749458955
1.1922461802
1.1747720000
1.1843480578
1.1928803411
1.1794740439
1.1930170512
1.1932703290
1.1849323301
1.1747061878
1.1924941741
1.1933910550
1.1830393991
1.1748819216
1.1932759722
1.1836309406
1.1750984502
1.1739784878
1.1920487877
1.1817238129
1.1823315928
1.1740475253
1.1934439114
1.1787621232
1.1933237362
1.1744679374
1.1803833082
1.1929727744
1.1892954599
1.1910413301
1.1810008933
1.1870863337
1.1832635904
1.1931935837
1.1924575450
1.1932156262
1.1902163612
1.1819324693
1.1882390928
1.1924622262
1.1845707268
1.1931616873
1.1796557324
1.1742575452
1.1858528458
1.1751392212
1.1781501333
1.1735779766
1.1736934440
1.1764812656
1.1790391256
1.1739316084
1.1740319231
1.1746617681
1.1773001222
1.1737640129
1.1735087904
1.1757349034
1.1826606249
1.1889464153
1.1933599322
1.1867133151
1.1828744811
1.1907496979
1.1927115674
1.1865494298
1.1906811835
1.1888582908
1.1927765269
1.1839849087
1.1899066746
1.1921734880
1.1878747762
1.1841954925
1.1921914647
1.1813170794
1.1815263437
1.1929643413
1.1877468629
1.1898409101
1.1932138634
1.1746749769
1.1854797882
1.1777189796
1.1760764358
1.1747257921
1.1774609419
1.1733518045
1.1731050518
1.1792267815
1.1735361546
1.1738002298
1.1732367854
1.1852864290
1.1738751304
1.1758499633
1.1752004056
1.1786171418
1.1768700981
1.1753490295
1.1742145919
1.1783237830
1.1736031857
1.1732633232
1.1733874443
1.1730488855
1.1734736053
1.1742346330
1.1766342060
1.1885851023
1.1924835755
1.1923873799
1.1884874646
1.1822639646
1.1904236416
1.1903896217
1.1863397459
1.1824811246
1.1861675001
1.1895608656
1.1918406478
1.1929624595
1.1926283347
1.1894995507
1.1835994041
1.1811261132
1.1809103188
1.1875060613
1.1838117639
1.1873684932
1.1918833586
1.1773013524
1.1754555399
1.1756507475
1.1730273507
1.1788092493
1.1727638509
1.1742340109
1.1851028049
1.1734161875
1.1726183064
1.1849050160
1.1742963898
1.1770269003
1.1733371821
1.1728843360
1.1764443187
1.1762116211
1.1749291579
1.1729050461
1.1747891837
1.1737794677
1.1731436959
1.1725700638
1.1727621640
1.1782127725
1.1737662941
1.1778944288
1.1730036618
1.1881152388
1.1711201114
1.1859714872
1.1820978956
1.1857870894
1.1921397384
1.1818728838
1.1900760713
1.1882251940
1.1900522519
1.1920202208
1.1710334193
1.1754702690
1.1807426257
1.1724824281
1.1891404536
1.1915466892
1.1705963995
1.1871420558
1.1742681594
1.1834327408
1.1869909114
1.1715241703
1.1715541417
1.1705027260
1.1926263639
1.1832124524
1.1805183295
1.1892064787
1.1774117227
1.1759042238
1.1738032641
1.1922386376
1.1727191888
1.1707894122
1.1914815079
1.1721229519
1.1737902336
1.1738592242
1.1724014154
1.1906603508
1.1722818607
1.1769035995
1.1784113475
1.1729471698
1.1725211045
1.1847295403
1.1728717420
1.1845221224
1.1766012303
1.1750313669
1.1752279139
1.1853226503
1.1722590064
1.1778328635
1.1743624103
1.1790652057
1.1720799283
1.1733149425
1.1906803870
1.1885025365
1.1875187068
1.1816395963
1.1760319168
1.1726697711
1.1829052010
1.1733197648
1.1803542919
1.1724127817
1.1725280371
1.1774803278
1.1757822982
1.1841368334
1.1745002847
1.1764108971
1.1724085520
1.1751662263
1.1877487048
1.1709231601
1.1717139544
1.1854133386
1.1719660720
1.1758156075
1.1771649024
1.1784571839
1.1897023342
1.1712409384
1.1704227176
1.1735025532
1.1714140992
1.1917665306
1.1711157472
1.1814998980
1.1745961426
1.1701326375
1.1720830238
1.1705638921
1.1734483257
1.1730948166
1.1699645705
1.1720110614
1.1714164194
1.1769746695
1.1749140887
1.1720917882
1.1887813237
1.1707486951
1.1754716187
1.1866198642
1.1749652206
1.1737571787
1.1729064813
1.1707081148
1.1717211084
1.1715072013
1.1922366366
1.1767330165
1.1828372721
1.1784563931
1.1695458143
1.1701178765
1.1731385045
1.1696626004
1.1911913285
1.1801507262
1.1873957261
1.1720148326
1.1841469779
1.1733450689
1.1741913327
1.1761938324
1.1806304912
1.1893632028
1.1719096930
1.1850542446
1.1724755829
1.1824851191
1.1780410714
1.1746040731
1.1690715130
1.1843992028
1.1913885423
1.1905252048
1.1900523463
1.1798160802
1.1884356728
1.1719145309
1.1693096877
1.1693226794
1.1721896579
1.1893639618
1.1739284825
1.1882526978
1.1745838727
1.1770900971
1.1687030029
1.1908388976
1.1906791730
1.1864531286
1.1862620705
1.1687862375
1.1728602614
1.1899475002
1.1709304922
1.1700108002
1.1855845015
1.1875177521
1.1816389214
1.1837899455
1.1753622888
1.1918257418
1.1784838813
1.1734866438
1.1893650657
1.1811552281
1.1718576908
1.1850534797
1.1768440065
1.1913865732
1.1714016438
1.1759136917
1.1912566793
1.1852757371
1.1811541931
1.1739847002
1.1747173508
1.1707425932
1.1875541112
1.1703353570
1.1908625640
1.1728782328
1.1780823574
1.1813989486
1.1711611433
1.1873947293
1.1723805092
1.1894116292
1.1893614873
1.1813149315
1.1908368884
1.1862612771
1.1918238000
1.1780819426
1.1798149875
1.1825413904
1.1870174862
1.1916310583
1.1848829689
1.1864586495
1.1908226049
1.1824841657
1.1837349461
1.1880094609
1.1696611377
1.1859775107
1.1885431840
1.1788295667
1.1907663098
1.1776057015
1.1800589455
1.1889654401
1.1703586837
1.1699793868
1.1827270722
1.1898832417
1.1701165713
1.1884343268
1.1800717624
1.1720082834
1.1837890987
1.1741902312
1.1725398639
1.1715078647
1.1840254630
1.1735888883
1.1705197740
1.1726776240
1.1758138586
1.1909189591
1.1777052480
1.1756508255
1.1718570680
1.1824152133
1.1861467343
1.1729052439
1.1709299552
1.1913861655
1.1745157814
1.1891344358
1.1714149340
1.1724064933
1.1749637113
1.1886273772
1.1714136006
1.1815420595
1.1867134117
1.1800142654
1.1877375593
1.1767313188
1.1810983161
1.1912450735
1.1688117888
1.1831698035
1.1793495560
1.1837072572
1.1691419750
1.1872549766
1.1735016465
1.1866605835
1.1835334933
1.1692740990
1.1717109566
1.1913431249
1.1846370724
1.1898706176
1.1696573442
1.1895952843
1.1756506131
1.1882581674
1.1724704165
1.1894101005
1.1840245500
1.1813979820
1.1875530525
1.1697643717
1.1764167795
1.1904640014
1.1912548986
1.1849572203
1.1892866054
1.1687840386
1.1907645459
1.1873050401
1.1835332953
1.1886730777
1.1864885538
1.1800579476
1.1852748459
1.1827261287
1.1885419002
1.1698022560
1.1684505816
1.1707894303
1.1734520085
1.1916292520
1.1845872071
1.1823839894
1.1818777199
1.1688829057
1.1701539625
1.1788293743
1.1856814376
1.1690055166
1.1886794867
1.1856052247
1.1907277096
1.1887598300
1.1885708031
1.1831598692
1.1805744873
1.1864577242
1.1704814365
1.1867426915
1.1910578227
1.1895816921
1.1715804121
1.1692353970
1.1682365353
1.1712676618
1.1899594835
1.1844066784
1.1902407053
1.1878026705
1.1683572563
1.1681670332
1.1813145280
1.1855784232
1.1824363284
1.1880271769
1.1697301295
1.1880395282
1.1873957943
1.1676779234
1.1680559818
1.1841735389
1.1851339368
1.1693127673
1.1860298192
1.1865480230
1.1883957113
1.1685644722
1.1678690023
1.1681581415
1.1870402514
1.1880217083
1.1888263384
1.1889885115
1.1882662350
1.1687783397
1.1682857062
1.1701045353
1.1693856680
1.1887759861
1.1679096838
1.1675654845
1.1897668990
1.1684512907
1.1690662456
1.1913429925
1.1674599456
1.1859769106
1.1680212880
1.1893053321
1.1883035867
1.1675104175
1.1895951660
1.1677246833
1.1678917726
1.1898823407
1.1681433349
1.1907591814
1.1922657105
1.1684815204
1.1683458004
1.1907336045
1.1864193608
1.1861624493
1.1861688474
1.1864272965
1.1864472041
1.1858637922
1.1875752512
1.1874131081
1.1853727880
1.1855979401
1.1850374683
1.1853782689
1.1867140611
1.1877919738
1.1861197459
1.1887231398
1.1874168776
1.1864498458
1.1883846514
1.1890213322
1.1869869315
1.1853005811
1.1872872382
1.1888190076
1.1889201076
1.1858424664
1.1878902134
1.1897496073
1.1870805951
1.1892864621
1.1882349278
1.1879330378
1.1847672287
1.1885224422
1.1867837599
1.1887251654
1.1883532060
1.1883887768
1.1852272772
1.1878634941
1.1858167645
1.1873191023
1.1840976718
1.1829501424
1.1864797295
1.1890662843
1.1864216737
1.1823328015
1.1858434439
1.1889221577
1.1847748694
1.1882909842
1.1877801899
1.1847686609
1.1860060639
1.1810457725
1.1877110560
1.1834516393
1.1882405182
1.1845795662
1.1867942133
1.1869769420
1.1816700730
1.1813782593
1.1885252438
1.1837110497
1.1839220544
1.1854256643
1.1824512818
1.1843455696
1.1850280882
1.1829712715
1.1836178767
1.1866048991
1.1826241890
1.1894716933
1.1829590968
1.1820284042
1.1819201285
1.1873254949
1.1843958061
1.1810455117
1.1755598025
1.1764965681
1.1869867413
1.1834526125
1.1829026591
1.1816748834
1.1839628612
1.1839347745
1.1856320572
1.1814788689
1.1819801709
1.1759841651
1.1765197712
1.1815732288
1.1832446197
1.1833748160
1.1820297631
1.1804701255
1.1800677871
1.1846163282
1.1787456717
1.1799819898
1.1823799211
1.1852554524
1.1795526453
1.1839333025
1.1841301058
1.1826249890
1.1785240475
1.1819201812
1.1821927762
1.1799717694
1.1794176392
1.1786512752
1.1791708441
1.1836281671
1.1850440536
1.1790183390
1.1825891944
1.1894729395
1.1795672269
1.1829041487
1.1814789383
1.1810676444
1.1815766360
1.1770686874
1.1810576565
1.1760589418
1.1755479299
1.1835999671
1.1764929483
1.1831713579
1.1803029170
1.1770796164
1.1808280628
1.1755544920
1.1760358785
1.1785112210
1.1790236273
1.1850556649
1.1780222513
1.1786486270
1.1795706016
1.1803586284
1.1799809544
1.1821110287
1.1846938276
1.1804696808
1.1825892710
1.1812485014
1.1825624190
1.1790157591
1.1795525242
1.1785243488
1.1860436401
1.1802107540
1.1790426170
1.1839421193
1.1794129165
1.1800670115
1.1798312858
1.1812305300
1.1800888165
1.1841412234
1.1779154024
1.1770653514
1.1806817156
1.1817042452
1.1808283620
1.1833672529
1.1810572712
1.1775791155
1.1765539443
1.1775553034
1.1776635132
1.1810205107
1.1743685811
1.1765542031
1.1812323430
1.1824092397
1.1780152759
1.1804230683
1.1806981568
1.1760538359
1.1770412787
1.1770647939
1.1810729278
1.1741246765
1.1802117060
1.1784729535
1.1747044267
1.1780222529
1.1790412438
1.1771732359
1.1812482653
1.1814134309
1.1751222998
1.1803577888
1.1783927818
1.1847026817
1.1766352339
1.1821157401
1.1751111617
1.1796438197
1.1790152150
1.1775546366
1.1741235435
1.1795139063
1.1780156622
1.1805456092
1.1782653703
1.1780325681
1.1812323405
1.1902798482
1.1806976810
1.1776616040
1.1826861902
1.1817892165
1.1771490864
1.1740384030
1.1775194212
1.1788978481
1.1806013956
1.1765497889
1.1904336999
1.1776290516
1.1833742332
1.1766347672
1.1790829347
1.1755751563
1.1904374886
1.1751331595
1.1773334737
1.1763352451
1.1779911238
1.1797355488
1.1746796459
1.1750905633
1.1743153561
1.1767226713
1.1755110838
1.1800805027
1.1769095306
1.1781994897
1.1751160674
1.1750545609
1.1789632539
1.1747669761
1.1756159968
1.1795134184
1.1902788703
1.1780294266
1.1759685113
1.1900343832
1.1759065450
1.1775463584
1.1905594628
1.1783548029
1.1799259260
1.1760403057
1.1907415461
1.1769583667
1.1904359304
1.1750901259
1.1763758523
1.1751071749
1.1901331699
1.1800806575
1.1763337476
1.1782484891
1.1910881253
1.1755697674
1.1755808775
1.1917177286
1.1753487345
1.1773316157
1.1763299127
1.1755086386
1.1792158187
1.1907162175
1.1808080115
1.1761723429
1.1751040243
1.1747659149
1.1759648583
1.1912757253
1.1754041836
1.1747280693
1.1767428258
1.1775843963
1.1756105429
1.1752536626
1.1900476708
1.1763780675
1.1755456615
1.1895532916
1.1909284259
1.1749781565
1.1771358729
1.1901316665
1.1917165096
1.1892273737
1.1914525466
1.1769551249
1.1745767706
1.1907154259
1.1919075439
1.1741772733
1.1767901035
1.1760360995
1.1913345368
1.1757245733
1.1881208987
1.1910449692
1.1800924021
1.1759150027
1.1895915623
1.1901084106
1.1760269589
1.1745577108
1.1916374912
1.1744905127
1.1767431174
1.1905035068
1.1755028833
1.1748561934
1.1770149602
1.1747258574
1.1750563401
1.1752127901
1.1747356613
1.1890657174
1.1911310151
1.1767759710
1.1895535747
1.1761685194
1.1912722266
1.1751053214
1.1808109873
1.1763783652
1.1746568549
1.1760750878
1.1754051025
1.1749569741
1.1914430792
1.1742981846
1.1928822265
1.1777266198
1.1910436445
1.1919058140
1.1744367185
1.1746547992
1.1746341447
1.1874653788
1.1743453049
1.1895953005
1.1922484243
1.1741789615
1.1895916603
1.1767882096
1.1926630092
1.1919070498
1.1747712291
1.1760275468
1.1869275181
1.1763911984
1.1885967746
1.1745783950
1.1924833274
1.1924957748
1.1748090989
1.1749090254
1.1911280263
1.1778956520
1.1748577064
1.1902700444
1.1890657154
1.1770132932
1.1930184955
1.1750573047
1.1745302645
1.1912238233
1.1760756708
1.1849255260
1.1785949329
1.1750966604
1.1862261896
1.1924814767
1.1744363014
1.1739776694
1.1926608830
1.1746358271
1.1763916966
1.1742606578
1.1929725593
1.1746563844
1.1777271358
1.1923384630
1.1748802009
1.1757433889
1.1921491995
1.1745207072
1.1836255867
1.1739344315
1.1927914125
1.1787603291
1.1747491324
1.1928124078
1.1933254588
1.1856634775
1.1744660128
1.1778962738
1.1922073895
1.1934456207
1.1902695812
1.1823279282
1.1745687080
1.1749475857
1.1919862203
1.1929708449
1.1923367565
1.1931952676
1.1739362888
1.1742617787
1.1926967347
1.1738623509
1.1843532670
1.1757441108
1.1751171554
1.1785966456
1.1934076211
1.1934474606
1.1737932456
1.1924600236
1.1809984811
1.1830431100
1.1740294889
1.1747510166
1.1933893520
1.1745708323
1.1742875184
1.1742655984
1.1794759066
1.1932686230
1.1747079780
1.1796545760
1.1927786896
1.1888588725
1.1917513343
1.1906846366
1.1817259768
1.1934458282
1.1805801501
1.1931387676
1.1865463554
1.1918039020
1.1919835484
1.1826590171
1.1932742791
1.1934160093
1.1738621954
1.1920459600
1.1933112048
1.1898433641
1.1914789046
1.1813166631
1.1877453029
1.1921942179
1.1839821472
1.1934060007
1.1933615890
1.1926945431
1.1738498815
1.1799626548
1.1803841157
1.1742895790
1.1742413598
1.1852830035
1.1742679459
1.1752049450
1.1783226959
1.1733848056
1.1736070598
1.1735506495
1.1766341968
1.1792269992
1.1738809192
1.1740503673
1.1746812427
1.1774596748
1.1735323626
1.1734280746
1.1733511999
1.1758521384
1.1832662681
1.1884882802
1.1915096945
1.1931598753
1.1861659249
1.1822638894
1.1918006894
1.1805804609
1.1917481399
1.1929991080
1.1801654595
1.1903928693
1.1924858458
1.1931369790
1.1870896455
1.1910378653
1.1892945648
1.1929707760
1.1845744285
1.1895018825
1.1918861822
1.1934143987
1.1873677982
1.1835984311
1.1924596783
1.1819340158
1.1809111806
1.1911818605
1.1931074853
1.1882404954
1.1914755060
1.1902137442
1.1933095157
1.1746553140
1.1849034203
1.1795545827
1.1778947752
1.1762108378
1.1747919017
1.1773012276
1.1734264620
1.1735104696
1.1729030947
1.1790393449
1.1737669190
1.1730939217
1.1737858779
1.1731485203
1.1858569268
1.1738524405
1.1739265146
1.1757320703
1.1751341174
1.1788109479
1.1770261649
1.1754560271
1.1742390427
1.1781515518
1.1736905490
1.1735502204
1.1730233130
1.1799617744
1.1735810270
1.1728847613
1.1734224643
1.1729678392
1.1742510626
1.1764807763
1.1881161175
1.1911817146
1.1927094099
1.1929971214
1.1921420099
1.1889452058
1.1828754026
1.1797641634
1.1900550228
1.1801643692
1.1907463120
1.1857866164
1.1818737144
1.1867149885
1.1915064233
1.1891424337
1.1915493753
1.1931056774
1.1928116071
1.1899040214
1.1841971769
1.1805198283
1.1908545479
1.1815263033
1.1911785035
1.1869908520
1.1832126407
1.1878752414
1.1921707750
1.1774820978
1.1753478062
1.1757821231
1.1732669302
1.1786157519
1.1726746115
1.1742087540
1.1845218004
1.1734674215
1.1729651369
1.1726187704
1.1724118338
1.1791671557
1.1854818325
1.1743635700
1.1768710913
1.1733247549
1.1730495278
1.1766019089
1.1760769658
1.1750312616
1.1731079147
1.1795525222
1.1724906172
1.1747221102
1.1737934426
1.1732324322
1.1724025657
1.1725177419
1.1784137292
1.1737934196
1.1777191038
1.1729527957
1.1730920264
1.1709246879
1.1745974824
1.1793851043
1.1719676042
1.1885837908
1.1911786482
1.1709149383
1.1706716784
1.1854136214
1.1749614063
1.1815010219
1.1863402741
1.1720183275
1.1712430354
1.1706213437
1.1923851663
1.1824807862
1.1797622163
1.1897044995
1.1877495859
1.1904205778
1.1764119889
1.1769106297
1.1730960029
1.1917686833
1.1733081458
1.1711345254
1.1908331952
1.1711515520
1.1752823673
1.1801521050
1.1724318409
1.1895584482
1.1918379823
1.1710027297
1.1704441557
1.1866202699
1.1740930655
1.1828380547
1.1875058827
1.1715491737
1.1715855217
1.1707433148
1.1928097049
1.1838120560
1.1811249997
1.1905075005
1.1887828866
1.1908515265
1.1771746432
1.1761366817
1.1736788084
1.1924466540
1.1726145874
1.1708507266
1.1911936919
1.1846633522
1.1719144714
1.1788078659
1.1737620242
1.1801857456
1.1721325417
1.1739291511
1.1725695055
1.1905264902
1.1905277615
1.1880061759
1.1721937311
1.1882535596
1.1826977103
1.1770923305
1.1724874911
1.1782103503
1.1821400841
1.1729976306
1.1795348963
1.1727659443
1.1841474373
1.1728635336
1.1851034497
1.1764440757
1.1749288779
1.1850795532
1.1753632827
1.1855852378
1.1720127780
1.1780431436
1.1742943340
1.1793499457
1.1719111509
1.1733468596
1.1726159420
1.1907907811
1.1907297976
1.1887259031
1.1720041723
1.1877706645
1.1819094182
1.1761955894
1.1727590060
1.1791648883
1.1831704102
1.1733313367
1.1806309894
1.1726201733
1.1724798122
1.1772999111
1.1756510828
1.1843998784
1.1746045150
1.1761962829
1.1703124702
1.1724092257
1.1716414038
1.1759142720
1.1749603604
1.1739855068
1.1726917704
1.1882239637
1.1710852904
1.1712929603
1.1717974113
1.1710867575
1.1765432446
1.1859712472
1.1719554378
1.1756417114
1.1769098352
1.1744397024
1.1782021153
1.1744652317
1.1900735483
1.1713151443
1.1706204592
1.1734255995
1.1703600260
1.1719571402
1.1711622792
1.1716223172
1.1920180670
1.1774842891
1.1711330214
1.1820968593
1.1774107475
1.1771655910
1.1696624434
1.1699807231
1.1744383094
1.1723814946
1.1699468122
1.1720171576
1.1706702603
1.1697696896
1.1908305603
1.1793831637
1.1733070214
1.1730061492
1.1704237365
1.1754688969
1.1699860492
1.1720529643
1.1711171059
1.1715837445
1.1766984070
1.1759032439
1.1746866614
1.1719422202
1.1892044909
1.1709141415
1.1708162958
1.1715159627
1.1757507740
1.1871414901
1.1715523216
1.1748208343
1.1779680953
1.1779687677
1.1735354582
1.1905050200
1.1710317087
1.1705947999
1.1728671878
1.1707069044
1.1716354795
1.1717535229
1.1924447150
1.1765330862
1.1734493096
1.1715226858
1.1834321487
1.1782012317
1.1697657131
1.1702077339
1.1738019648
1.1729762371
1.1700143506
1.1726133498
1.1708488999
1.1695442985
1.1914790746
1.1807411016
1.1740918394
1.1724811942
1.1878786285
1.1722620810
1.1696581839
1.1691431848
1.1720012475
1.1847292546
1.1900511627
1.1733122896
1.1877697977
1.1735893106
1.1740793622
1.1760303841
1.1803536457
1.1688130444
1.1904819827
1.1905265473
1.1897314565
1.1720786060
1.1861950727
1.1856150646
1.1690065708
1.1725231784
1.1895246762
1.1714767867
1.1696116257
1.1846625968
1.1885015093
1.1808398676
1.1808391644
1.1830684935
1.1778304805
1.1744998276
1.1692195483
1.1841360573
1.1814508912
1.1916344239
1.1906589730
1.1777064677
1.1742036091
1.1901288443
1.1891776408
1.1803842521
1.1904649241
1.1711366154
1.1888623455
1.1721235543
1.1692750525
1.1693662560
1.1722775316
1.1896568735
1.1738580726
1.1887249489
1.1743027988
1.1769013773
1.1814503812
1.1688842750
1.1911153653
1.1907284986
1.1901654539
1.1721295941
1.1867141635
1.1867910789
1.1688529280
1.1728675519
1.1901277349
1.1707621454
1.1699600122
1.1853217847
1.1880051756
1.1819088562
1.1858552027
1.1843681235
1.1788061479
1.1752271809
1.1691057614
1.1850788175
1.1920427865
1.1907894005
1.1889092086
1.1790359651
1.1732052698
1.1902409564
1.1895257080
1.1817344629
1.1716799812
1.1804767148
1.1904798493
1.1856143797
1.1765428171
1.1916324190
1.1712919897
1.1769741345
1.1790345918
1.1836093892
1.1756594323
1.1877811973
1.1910301705
1.1858058918
1.1701183552
1.1847160524
1.1737889278
1.1905767075
1.1817333770
1.1829664853
1.1737880090
1.1736774678
1.1744646245
1.1875315348
1.1713173826
1.1710022719
1.1768443112
1.1771736270
1.1701169753
1.1853418119
1.1870591802
1.1703113356
1.1715834936
1.1779849735
1.1905697581
1.1761975171
1.1901526833
1.1726909678
1.1727179998
1.1777891294
1.1787996750
1.1705652572
1.1787243098
1.1896864365
1.1711192367
1.1696995918
1.1761357687
1.1711180132
1.1694919280
1.1808442617
1.1894499769
1.1711168279
1.1704021441
1.1878774925
1.1812325813
1.1722553278
1.1890461769
1.1897294824
1.1707876759
1.1816055631
1.1911132522
1.1867902730
1.1776669769
1.1920408710
1.1719412932
1.1777886079
1.1728788879
1.1803830226
1.1828144339
1.1749132814
1.1872828495
1.1914203670
1.1851343340
1.1859217544
1.1910595583
1.1830675947
1.1839943875
1.1751670666
1.1731375524
1.1754710641
1.1883042297
1.1705017389
1.1703364016
1.1699455503
1.1862297031
1.1881083901
1.1707476026
1.1791587092
1.1913421094
1.1905121594
1.1735347095
1.1694932233
1.1776672895
1.1779521763
1.1795186820
1.1893060066
1.1699847734
1.1696612349
1.1821626170
1.1902627523
1.1707068584
1.1697683990
1.1888607595
1.1803816990
1.1717200182
1.1898514025
1.1901635021
1.1720496442
1.1843673807