<VTKFile type="UnstructuredGrid" version="0.1">
	<UnstructuredGrid>
		<Piece NumberOfPoints="1862" NumberOfCells="3498">
			<CellData>
				<DataArray type="Int32" Name="type" NumberOfComponents="1" Format="ascii">
0
0
0
0
0
0
0
0
0
0
0
0
0
0
0
0
1
0
0
1
0
0
0
0
0
0
0
0
0
0
0
0
0
1
0
0
0
0
0
0
0
0
0
0
0
0
0
0
0
0
1
0
0
0
0
0
0
0
0
0
0
1
0
0
0
0
0
0
0
0
0
0
0
0
0
0
0
0
0
0
0
0
0
0
0
0
0
0
0
0
0
0
0
0
0
0
0
0
0
0
0
0
0
0
0
0
0
0
0
0
0
0
0
0
0
0
0
0
0
0
0
0
0
1
0
0
0
0
0
0
0
0
0
0
0
0
0
0
0
0
0
0
0
0
0
0
0
0
0
0
0
1
0
1
1
0
0
0
0
0
0
0
0
0
0
0
0
0
1
0
1
0
0
0
0
1
0
0
0
0
0
0
0
0
1
1
0
0
0
0
0
1
0
0
0
0
0
0
0
0
1
0
0
0
0
0
0
0
0
0
0
0
0
0
0
0
0
0
0
0
0
0
0
0
0
0
0
0
0
0
0
0
0
1
0
0
0
0
0
0
0
0
0
0
0
0
0
0
0
0
0
0
0
0
0
0
0
0
0
0
0
0
0
0
0
0
0
0
0
0
0
0
0
0
0
0
0
0
0
0
0
1
0
0
0
0
0
0
0
0
0
0
0
0
0
0
0
0
0
0
0
0
0
0
0
0
0
0
0
0
0
0
0
0
0
0
0
0
0
0
0
0
0
0
0
0
0
0
0
0
0
0
1
0
0
0
0
0
0
0
0
0
0
0
0
0
0
0
0
0
0
0
0
0
0
0
0
0
0
0
0
0
0
0
0
0
0
0
0
0
0
0
0
0
0
0
0
0
0
0
0
0
0
0
0
0
0
0
0
0
1
0
0
0
0
0
0
0
0
0
0
0
0
0
0
0
0
0
0
0
0
0
0
0
0
0
0
0
0
0
0
0
0
0
0
0
0
0
0
0
0
0
0
0
0
0
0
0
0
0
0
0
0
0
0
0
0
0
0
0
0
0
0
0
0
0
0
0
0
0
0
0
0
0
0
0
0
0
0
0
0
0
0
0
0
0
0
0
0
0
0
0
0
0
0
0
0
0
0
0
0
0
0
0
0
0
0
0
0
0
0
0
0
0
0
0
0
0
0
0
0
0
0
0
0
0
0
0
0
0
0
0
0
1
0
0
0
0
0
0
0
0
0
0
0
0
0
0
0
0
0
0
0
1
0
0
0
0
0
0
0
0
0
0
0
0
0
0
0
0
0
0
0
0
0
0
0
0
0
0
0
0
0
0
0
0
0
0
0
0
0
0
0
0
0
0
0
0
0
0
0
0
0
0
0
0
0
1
0
0
0
0
0
0
0
0
0
0
0
0
0
0
0
0
0
0
0
0
0
0
0
1
0
0
0
0
0
0
0
0
0
0
0
0
0
0
0
0
0
0
0
1
0
0
0
1
0
0
0
0
0
0
0
0
0
0
0
0
0
0
0
0
0
0
0
0
0
0
0
0
0
1
0
0
0
0
0
0
0
1
0
0
0
0
0
0
0
0
0
0
0
0
0
0
0
0
0
0
0
0
0
0
0
0
0
0
1
0
0
0
0
0
0
0
1
0
0
0
0
0
0
1
0
0
0
0
0
0
0
0
0
0
0
0
0
0
0
0
0
0
0
0
0
0
0
0
0
0
0
0
0
0
0
0
0
0
0
0
0
0
1
0
0
0
0
0
1
0
0
0
0
0
0
0
1
0
0
0
0
0
0
0
0
0
0
0
0
0
1
0
0
0
0
0
0
0
0
0
0
0
0
0
0
0
0
0
0
0
0
0
0
0
0
0
0
0
0
0
0
0
0
0
0
0
0
0
0
0
0
0
0
0
0
0
0
0
0
0
0
0
0
0
1
0
0
0
0
0
0
0
0
0
0
0
0
0
0
0
0
0
0
0
1
0
0
0
0
0
0
0
0
0
1
0
0
0
0
0
0
0
0
0
0
0
0
0
0
0
0
0
0
0
0
0
0
0
0
0
0
0
0
0
1
0
1
0
0
0
0
0
0
0
0
0
0
0
0
0
0
0
0
0
0
0
0
0
0
0
0
0
0
0
1
0
0
0
1
0
0
0
0
0
0
0
0
0
0
0
0
0
0
0
0
0
0
0
0
0
0
0
0
0
0
0
0
1
0
0
0
0
0
0
0
0
0
0
0
0
0
0
0
0
0
0
0
0
0
0
0
0
0
1
0
0
0
0
0
0
0
0
0
0
0
0
0
0
0
0
0
0
0
0
0
0
0
1
0
0
0
0
0
0
1
0
0
0
0
0
0
0
0
0
0
0
1
0
0
0
0
0
0
0
0
0
0
0
0
0
0
0
0
0
0
0
0
1
0
0
0
0
0
0
0
0
0
0
0
1
0
0
0
0
0
0
0
0
0
0
0
0
0
0
0
0
0
0
0
0
0
1
0
0
0
0
0
0
0
0
0
1
1
0
1
0
1
0
0
0
0
0
0
0
0
0
0
0
1
0
0
0
0
0
1
1
0
0
0
0
0
0
1
0
0
0
0
0
1
1
1
0
0
0
0
0
0
0
0
0
0
0
0
1
1
0
0
1
0
0
0
0
0
1
0
0
0
1
0
1
0
0
0
0
0
0
0
1
0
0
0
0
0
0
0
1
0
0
1
0
0
0
0
0
0
0
0
0
0
0
0
0
0
0
1
0
0
0
0
0
0
0
0
0
0
0
0
0
0
0
0
0
0
0
0
0
0
0
0
0
0
0
0
0
0
0
0
0
0
0
0
1
0
0
0
0
0
0
1
0
0
0
1
0
0
0
0
0
0
0
0
0
0
0
1
0
0
0
0
0
0
0
0
0
0
0
0
0
0
0
0
0
0
0
0
0
0
0
0
0
0
0
0
0
0
0
0
0
0
0
0
0
0
0
0
1
1
0
0
0
0
0
0
0
0
0
0
0
0
0
1
0
0
0
0
0
0
0
0
0
0
0
0
0
0
0
0
0
0
0
0
0
0
0
0
0
0
0
0
0
0
0
0
0
0
0
0
0
0
0
0
0
0
0
0
0
0
0
0
0
0
0
0
0
0
0
0
0
0
0
0
0
0
0
0
0
0
0
0
0
0
0
0
1
1
0
0
0
0
0
0
0
0
1
0
0
0
0
0
0
0
0
0
0
0
0
0
0
0
0
0
0
0
0
0
0
0
1
0
0
0
0
0
0
0
0
0
0
0
0
0
0
0
0
1
0
0
0
0
0
0
0
0
0
0
0
0
0
0
0
0
0
0
0
0
0
0
0
0
0
0
0
0
0
0
0
0
0
0
0
0
0
0
0
0
0
0
0
0
0
0
0
0
0
0
0
0
0
0
0
0
0
0
0
0
0
0
0
0
0
0
0
0
0
0
0
0
0
0
0
0
0
0
0
0
0
0
0
0
0
0
0
0
0
0
1
1
0
0
0
0
0
1
0
0
0
0
0
0
0
0
0
0
0
0
1
0
0
0
0
0
0
0
0
0
0
0
0
0
0
0
0
0
0
0
0
0
0
0
0
0
0
0
0
0
0
0
0
0
0
0
0
0
0
0
0
0
0
0
0
0
0
0
0
0
0
0
0
0
1
0
1
0
0
0
0
0
0
0
0
0
0
0
0
0
0
0
0
0
0
1
0
0
0
0
0
0
0
0
0
0
0
0
0
0
0
0
0
0
0
0
0
0
0
0
0
0
0
0
0
0
0
0
0
0
0
0
0
0
0
0
0
0
0
0
0
0
0
0
0
0
0
0
0
0
0
0
0
0
0
0
0
0
0
0
0
0
0
0
0
0
1
0
0
0
0
0
0
0
0
0
0
1
0
0
0
0
0
0
0
0
0
0
0
0
0
0
0
0
0
0
0
0
0
0
0
0
0
0
0
0
0
0
0
0
0
0
0
0
0
1
0
0
0
0
0
0
0
0
0
0
0
0
0
0
0
0
0
0
0
0
0
0
0
0
0
0
0
0
0
0
0
0
0
0
0
0
0
0
0
0
0
0
0
0
0
0
0
0
0
0
0
0
0
0
0
0
0
0
0
0
0
0
0
0
0
0
0
0
0
0
0
0
0
0
0
0
0
0
0
0
0
1
0
0
0
0
0
0
0
0
0
0
0
0
0
0
0
0
0
0
0
0
0
0
0
0
0
0
0
0
0
0
0
0
0
0
0
0
0
0
0
0
0
0
0
0
0
0
0
0
0
0
0
0
0
0
0
0
0
0
0
0
0
0
0
0
0
0
0
0
0
0
0
0
0
0
0
0
0
0
0
0
0
0
0
0
0
0
0
0
0
0
0
0
0
0
0
0
0
0
0
0
0
0
0
0
0
0
0
0
0
0
0
0
0
0
0
0
0
0
0
0
0
0
0
1
0
0
0
0
0
0
0
0
0
0
0
0
0
0
0
0
0
0
0
0
0
0
0
0
0
0
0
0
0
0
0
0
0
0
0
0
0
0
0
0
0
0
0
0
0
0
0
0
0
0
0
0
0
0
0
0
0
0
0
0
0
0
0
0
0
0
0
0
0
0
0
0
0
0
0
0
0
0
0
0
0
1
0
0
0
0
0
0
0
1
0
0
0
0
0
0
0
0
0
0
0
0
0
0
0
0
0
0
0
0
0
0
0
0
0
0
0
0
0
0
0
0
0
0
0
0
0
1
0
0
0
0
0
0
0
0
0
0
0
0
0
0
0
0
0
0
0
0
0
1
0
0
0
0
0
0
0
0
0
0
0
0
1
1
0
0
0
0
0
0
0
0
0
0
0
0
0
0
0
1
1
0
1
0
0
0
0
0
0
0
0
0
1
0
0
0
0
0
0
1
0
0
0
0
0
0
0
0
0
0
1
0
0
0
0
1
0
1
0
0
0
0
0
0
0
1
0
0
0
1
0
0
0
1
0
1
1
0
0
1
1
0
0
0
1
0
0
0
1
0
0
0
0
0
0
0
0
0
1
0
0
0
0
0
0
1
0
0
0
0
0
0
0
0
0
0
0
0
0
0
0
0
0
0
0
0
0
0
0
0
0
0
0
1
0
0
1
0
0
0
0
0
0
0
0
0
0
0
0
0
0
0
0
0
0
1
0
0
1
0
0
0
0
0
0
0
0
0
0
0
1
0
0
1
0
0
0
0
0
0
0
0
0
0
0
1
1
0
0
0
0
0
0
0
0
0
0
0
0
1
0
0
0
0
0
0
0
0
0
0
0
0
0
0
0
0
0
1
0
0
0
0
0
0
0
0
0
0
0
0
0
0
0
0
0
1
0
0
0
0
0
0
0
0
0
0
0
0
0
0
0
0
0
0
0
0
0
0
0
0
0
0
0
0
0
0
0
0
0
0
0
0
0
0
0
0
1
0
0
0
0
0
0
0
0
0
0
0
0
0
0
0
0
0
0
0
0
0
0
0
0
0
0
0
0
0
0
0
0
0
0
0
0
0
0
0
0
0
0
0
0
0
1
0
0
0
0
0
0
0
0
0
0
0
0
0
0
0
0
0
0
0
0
0
0
0
0
0
0
0
0
0
0
0
0
0
0
0
0
0
0
0
0
0
0
0
0
0
0
0
1
0
0
0
0
0
0
0
0
0
0
1
0
0
0
0
0
0
0
0
0
0
0
0
0
0
0
1
0
0
1
0
0
0
0
0
0
0
0
0
0
0
0
0
0
0
0
0
0
0
0
0
0
0
1
0
0
0
0
0
0
0
0
0
0
0
0
0
0
0
0
0
0
0
0
0
0
0
0
0
0
0
0
0
0
0
0
0
0
0
1
0
0
0
0
0
0
0
0
0
0
0
0
0
0
0
0
0
0
0
0
0
0
0
0
0
0
0
0
0
0
0
0
0
0
0
0
0
0
0
0
0
0
0
0
0
0
0
0
0
0
0
0
0
0
0
0
0
0
0
0
0
0
0
0
0
0
0
0
0
0
0
0
0
0
0
0
1
0
0
0
0
0
0
0
0
0
0
0
0
0
0
0
0
0
0
0
0
0
0
0
0
0
0
0
0
0
0
0
0
0
0
0
0
0
0
0
1
0
0
0
0
0
0
0
0
0
0
0
0
1
1
0
0
0
0
0
0
0
0
0
0
0
0
0
0
0
0
0
0
0
0
0
0
0
0
0
0
0
0
0
0
0
0
0
0
0
0
0
0
0
0
0
0
0
0
0
0
0
0
0
0
0
0
0
0
0
0
0
0
0
0
0
0
0
0
0
0
0
0
0
0
0
0
0
0
0
0
0
0
0
0
0
0
0
0
0
0
0
0
0
0
0
0
0
0
0
0
0
0
0
0
0
1
0
1
0
0
0
0
0
0
0
1
1
1
1
0
0
0
0
0
0
0
0
0
0
0
0
0
0
0
0
0
0
0
0
0
0
0
0
0
0
0
0
1
1
0
0
0
0
0
0
0
0
0
0
0
0
0
0
0
0
0
0
1
0
0
0
0
0
0
0
1
1
0
1
1
0
0
1
0
0
0
0
0
0
0
1
0
1
0
0
0
0
0
0
0
0
0
0
0
0
0
0
0
0
0
0
0
0
0
0
0
0
0
0
0
1
1
0
0
0
1
1
0
0
0
0
1
0
0
1
0
1
0
0
0
0
0
1
0
0
0
1
0
0
0
0
0
0
0
0
0
0
0
0
0
0
0
0
0
0
0
0
0
0
0
0
0
0
0
1
0
0
0
0
0
0
1
0
0
0
0
0
0
0
0
0
0
0
0
0
0
0
0
0
0
0
0
0
0
0
0
0
0
0
0
0
1
0
1
0
0
0
0
0
0
0
1
0
0
0
0
0
0
0
0
0
0
0
1
0
0
0
0
0
0
0
0
0
1
0
0
0
0
0
0
0
1
0
0
0
0
0
0
0
1
0
0
0
0
0
0
0
0
0
0
0
0
0
0
0
0
0
0
0
1
0
1
0
0
0
0
0
1
0
0
0
0
0
0
0
0
0
0
0
0
0
0
0
0
0
0
0
0
0
0
0
0
0
1
0
1
0
0
0
0
0
0
0
0
0
1
0
0
0
0
0
1
0
0
0
0
0
0
0
0
0
0
0
0
0
0
0
1
0
0
0
0
0
0
0
0
1
0
0
0
0
0
0
0
0
0
0
0
0
0
0
0
0
0
0
0
0
0
0
0
0
0
0
0
0
0
0
1
0
0
0
0
0
0
0
0
0
0
0
0
0
0
0
0
1
0
0
0
0
0
0
0
0
1
0
0
0
0
0
0
0
0
0
1
0
0
0
0
0
1
0
0
0
0
0
0
0
0
0
0
0
0
0
0
0
0
0
0
0
1
0
0
0
0
0
0
1
0
0
0
0
0
0
0
0
1
0
0
0
0
0
0
0
0
0
0
0
0
0
0
1
0
0
1
0
0
0
1
0
0
0
0
0
0
0
0
0
0
0
0
0
0
0
0
1
0
0
0
0
0
0
0
0
0
0
1
0
1
0
0
0
0
0
0
1
0
0
0
0
0
0
0
0
0
0
0
0
0
0
0
0
0
0
0
0
0
0
0
0
0
0
0
1
1
0
0
0
0
0
0
1
0
0
0
0
0
0
0
0
0
0
0
0
0
1
0
0
0
0
0
0
0
1
0
0
0
0
0
0
0
0
0
0
0
0
0
0
0
0
0
0
0
0
0
0
0
0
0
0
0
1
0
0
0
0
0
0
0
0
0
0
1
0
0
1
0
0
0
0
0
0
0
0
0
0
0
0
0
0
0
0
0
0
0
0
0
0
0
0
0
0
0
0
0
1
0
0
0
0
0
0
0
1
0
0
0
0
0
0
0
1
0
0
0
0
1
0
0
0
0
0
0
0
0
0
0
0
1
0
1
0
0
0
1
0
				</DataArray>
				<DataArray type="Float64" Name="h" NumberOfComponents="1" Format="ascii">
1.0434878955
1.0435010118
1.0243478520
1.0290912968
1.0286411540
1.0272789465
1.0300183627
1.0387083911
1.0329900216
1.0421985102
1.0319173272
1.0252281728
1.0500849184
1.0329021571
1.0428948568
1.0573127019
1.0252929744
1.0464285205
1.0485775323
1.0294981725
1.0190453844
1.0561843349
1.0495693068
1.0247943232
1.0276283262
1.0572986978
1.0615313911
1.0528937140
1.0414474960
1.0357935700
1.0315595902
1.0444782438
1.0593524318
1.0206328067
1.0128949103
1.0318579020
1.0147922335
1.0571780211
1.0586477221
1.0210016813
1.0358294833
1.0397068972
1.0582573531
1.0504414381
1.0262784489
1.0504647545
1.0527750950
1.0117612918
1.0070145566
1.0141336475
1.0161655658
1.0410517671
1.0447966957
1.0274001110
1.0301463904
1.0641085256
1.0441609929
1.0075967605
1.0114413988
1.0202191489
1.0032470213
1.0031584044
1.0068754360
1.0345487895
1.0540803157
1.0505198572
1.0244333849
1.0139215722
1.0047713683
1.0043363055
1.0090029809
1.0230995076
1.0636882308
1.0221904960
1.0158852577
1.0681050559
1.0096643490
1.0060560476
1.0086727531
1.0628903939
1.0018313367
1.0460082009
1.0011258946
1.0243719360
1.0670358722
1.0628530633
1.0015307930
1.0372597289
1.0086402843
1.0030513958
1.0028179999
1.0650667095
1.0040002439
1.0071518026
1.0541940621
1.0582284232
1.0507732713
1.0647534931
1.0592599060
1.0021632877
1.0018870347
1.0013507203
1.0423551940
1.0070887304
1.0469919071
1.0361230549
1.0619021943
1.0046764043
1.0083713676
1.0480151514
1.0103360360
1.0047600952
1.0042873139
1.0043976372
1.0295169903
1.0004418592
1.0355451917
1.0409954708
1.0016928371
1.0180904404
1.0433546315
1.0440107965
1.0686235899
1.0368352752
1.0065895571
1.0029642466
1.0232614354
1.0389060328
1.0003717188
1.0006166286
1.0010710497
1.0562788735
1.0132470894
1.0001295402
1.0382972930
1.0016920990
1.0579734081
1.0001557901
1.0006648580
1.0624339417
1.0418180820
1.0367166246
1.0006057561
1.0643976975
1.0648997135
1.0011970596
1.0605755194
1.0000929636
1.0395630838
1.0000231580
1.0577084144
1.0000722590
1.0000839036
1.0000060925
1.0008890464
1.0002050647
1.0000185680
1.0465431939
1.0000197437
1.0394230531
1.0644651220
1.0000720768
1.0605715599
1.0430858009
1.0434526953
1.0003347087
1.0664766660
1.0622952104
1.0371706003
1.0001191287
1.0000259371
1.0358779546
1.0000091160
1.0485050779
1.0686015625
1.0000005467
1.0665609566
1.0001014202
1.0000018806
1.0453709405
1.0003304312
1.0704598202
1.0416462279
1.0704643481
1.0367982534
1.0335128102
1.0684285035
1.0000044136
1.0365133593
1.0296517111
1.0720441354
1.0000023101
1.0373025342
1.0700774603
1.0000008843
1.0001936942
1.0512813328
1.0733516506
1.0714462116
1.0000062562
1.0291406074
1.0683552118
1.0321347442
1.0000050952
1.0743402024
1.0497135281
1.0640684118
1.0596124339
1.0725919305
1.0682358626
1.0736710086
1.0349367617
1.0504654701
1.0482579519
1.0619610675
1.0750768619
1.0661823251
1.0534771121
1.0720665131
1.0433456171
1.0733119875
1.0072546214
1.0702367921
1.0255957079
1.0700586456
1.0000268615
1.0011406937
1.0508502568
1.0748830671
1.0030873156
1.0000123056
1.0147035369
1.0619823527
1.0000078625
1.0001046922
1.0383183114
1.0754680609
1.0671801959
1.0413690083
1.0713366519
1.0767923461
1.0632097248
1.0555656113
1.0701371503
1.0616873645
1.0658797495
1.0525200882
1.0739100301
1.0651572338
1.0585614689
1.0692640877
1.0751633050
1.0560674935
1.0767692920
1.0781865478
1.0546442862
1.0680403072
1.0637729990
1.0482612512
1.0197212786
1.0733308326
1.0748423031
1.0593751204
1.0330202632
1.0672345301
1.0001995201
1.0000544272
1.0770335042
1.0000141075
1.0106213492
1.0018991239
1.0721196742
1.0048032209
1.0449710561
1.0318830105
1.0783667191
1.0688262171
1.0468597846
1.0202027510
1.0734270408
1.0019078871
1.0000170834
1.0000534841
1.0001986424
1.0048174250
1.0104817045
1.0575030343
1.0697426755
1.0578583075
1.0603214602
1.0688155919
1.0785261295
1.0659304657
1.0647231335
1.0740787020
1.0797326127
1.0731558533
1.0677347950
1.0624397879
1.0546510945
1.0598560290
1.0667038252
1.0769874976
1.0810536483
1.0797580693
1.0718934850
1.0780897904
1.0710025461
1.0604877981
1.0785038112
1.0538231987
1.0665122620
1.0000296187
1.0800593620
1.0030129094
1.0262168768
1.0761795258
1.0072316929
1.0001036310
1.0751787084
1.0411231655
1.0728037448
1.0149714337
1.0003650283
1.0740514160
1.0651404684
1.0552209979
1.0001046314
1.0400425447
1.0148315244
1.0030587141
1.0003548812
1.0000348469
1.0811961851
1.0267539585
1.0773477885
1.0072093101
1.0713065480
1.0005178246
1.0767714507
1.0826932934
1.0759891924
1.0619298163
1.0814532117
1.0679200642
1.0719351734
1.0670892225
1.0637436676
1.0061298551
1.0848590372
1.0838675483
1.0565214110
1.0690764462
1.0636796901
1.0022271145
1.0743310540
1.0842305925
1.0810798486
1.0736642576
1.0397368393
1.0252914067
1.0005011464
1.0598655431
1.0799757249
1.0825395497
1.0697593234
1.0892434728
1.0872902947
1.0774776620
1.0636042033
1.0737826722
1.0175080860
1.0651017136
1.0001864953
1.0336817022
1.0492842709
1.0006301404
1.0648426374
1.0045824180
1.0813602299
1.0826513662
1.0104821298
1.0000584161
1.0790720285
1.0202970946
1.0781313807
1.0770495127
1.0616842258
1.0722117527
1.0908463832
1.0000670006
1.0836099699
1.0485164914
1.0951081023
1.0006017181
1.0340749931
1.0604515122
1.0740248188
1.0803543554
1.0963938519
1.0780192870
1.0046959272
1.0958108885
1.0202513243
1.0960913945
1.0001924272
1.0103721360
1.0804196496
1.0712081286
1.0940390488
1.0626551484
1.0869748943
1.0336555696
1.0865451122
1.0736057519
1.0024432243
1.0098502800
1.0789089239
1.0407193860
1.0828141027
1.0910682846
1.0919268422
1.0688481483
1.0134028275
1.0013132661
1.0634637356
1.0005528868
1.0646821553
1.0311837932
1.0843941607
1.0821577797
1.0011862904
1.0626357632
1.0084114339
1.0805418206
1.0692068179
1.0263854023
1.0196634907
1.0016237527
1.0925650100
1.0879072154
1.0799368941
1.0710490124
1.0517058655
1.0897874354
1.0763074912
1.0794430854
1.0870239927
1.0494407681
1.0370252107
1.0676715160
1.0001906450
1.0636144186
1.0850698005
1.0830496468
1.0919256058
1.0010820013
1.0110805442
1.0828149651
1.0042700143
1.0657678929
1.0852471562
1.0759683606
1.0001085589
1.0812018883
1.0416225565
1.0734567897
1.0802874990
1.0984095764
1.0701510369
1.0010348253
1.0821001967
1.0146324808
1.0862796989
1.0849930835
1.0682409910
1.0034229549
1.0960071389
1.0661938991
1.0634876757
1.0647145545
1.0879139839
1.0728437626
1.0003347230
1.0344339442
1.0169865032
1.0069315318
1.0684228783
1.0564851367
1.0772473509
1.0896927717
1.0829218652
1.0019448714
1.0668595425
1.0604532322
1.0861907238
1.0791695422
1.0098448843
1.0266263041
1.0626192424
1.0767817581
1.0471919003
1.0922404430
1.0803553052
1.0963924820
1.0845115443
1.0758908749
1.0658944829
1.0879783056
1.0883753433
1.0684213462
1.0873917676
1.0818243121
1.0821022166
1.0936311030
1.0662011605
1.0716577588
1.0900295285
1.0667346714
1.0829197695
1.0873952234
1.0858297659
1.0889664723
1.0003395826
1.0761205155
1.0424434781
1.0481739123
1.0844960329
1.0955329587
1.0889941632
1.0535453261
1.0759694314
1.0773142895
1.0701641522
1.0701546317
1.1018709917
1.0668660345
1.0791707799
1.0659029597
1.0955307781
1.0879170449
1.1029305180
1.0913221335
1.0665568643
1.1011634730
1.0796217761
1.0531089164
1.0862832720
1.1028343446
1.0827558131
1.0016746926
1.0974569238
1.0728421605
1.0978374523
1.0672133262
1.0954303619
1.0895689446
1.0723895297
1.0219030502
1.0048410631
1.0877185089
1.0614447516
1.0110710049
1.0728456874
1.1000687170
1.0196313039
1.0845144379
1.0734578711
1.0864224799
1.0001905807
1.0856798694
1.0878710465
1.0628888323
1.0856665479
1.0828211899
1.0664406824
1.0871941655
1.0917535343
1.0818323462
1.0913838990
1.0829799595
1.0494028349
1.0767890110
1.0385443225
1.0900650472
1.0707017593
1.0016244232
1.0336115918
1.0794512584
1.0954583490
1.0005533853
1.1057402229
1.0867178267
1.1009478018
1.1053657800
1.0850746170
1.0922629622
1.0668051560
1.0029313391
1.0980892224
1.0972152354
1.0895557805
1.0080870086
1.0786685087
1.0634496046
1.1066583990
1.1090224963
1.0277318603
1.0098370661
1.0530859138
1.1101871563
1.0681400226
1.0440756736
1.0800639320
1.0917527745
1.0743597207
1.0867862844
1.0701674654
1.0856823696
1.0889963080
1.0761218544
1.0007745558
1.0930691925
1.0667799867
1.0667410456
1.0867198430
1.1061305579
1.0334585550
1.0672190839
1.1175456519
1.1090234603
1.1121145473
1.1171513678
1.0895707515
1.0829220465
1.0877211735
1.0728441339
1.0650293430
1.0192356369
1.0781495091
1.0885442111
1.0665637147
1.1123943671
1.1068012009
1.0930796742
1.0014646712
1.0603206272
1.0978360647
1.1096539628
1.0148905087
1.1450808597
1.0863292039
1.0657186516
1.0723183180
1.1675860779
1.0919224986
1.0933526210
1.0796233496
1.0759928886
1.0819858001
1.0664443952
1.0685438305
1.0838202082
1.0499657325
1.0095590416
1.0825628847
1.1017511950
1.0896908362
1.0663083619
1.0770702703
1.0052328574
1.0023199875
1.1018694651
1.1152514545
1.1054473659
1.1159715343
1.0659525601
1.1230293518
1.1219347595
1.0030992492
1.0141393492
1.1011252809
1.1042361340
1.0570621143
1.1075001555
1.1133090143
1.1343501634
1.0361309722
1.0068247868
1.0217695066
1.1022275655
1.0932255046
1.1304786081
1.1038579651
1.1114518618
1.0413184456
1.0267644656
1.0682972310
1.0560646157
1.1632380009
1.0151257230
1.0059106356
1.0932631889
1.0192450235
1.0375624870
1.0531257501
1.0035065122
1.0974618263
1.0106353153
1.0698683944
1.0827599018
1.0039862456
1.0801355943
1.0073588607
1.0027397251
1.0614403428
1.0043422659
1.0489206192
1.0243207428
1.0115204606
1.0024414548
1.0571686029
1.0412561895
1.0364113940
1.0364318859
1.0412789256
1.0276800637
1.0252232274
1.0319083452
1.0345754979
1.0330281884
1.0272639529
1.0286584707
1.0330531804
1.0330027484
1.0428800044
1.0300071622
1.0387362509
1.0345826281
1.0276874598
1.0458835366
1.0464215352
1.0290936125
1.0243558382
1.0485574801
1.0357917288
1.0540225151
1.0233701530
1.0387125315
1.0572988319
1.0276259485
1.0421985996
1.0528806717
1.0500896076
1.0211442936
1.0598768853
1.0513043857
1.0387339300
1.0315570620
1.0458891146
1.0206319877
1.0593496099
1.0444394826
1.0619831154
1.0209916144
1.0610929322
1.0252917499
1.0573128877
1.0582379747
1.0586007421
1.0233722262
1.0540219686
1.0357939904
1.0329044152
1.0294968297
1.0211513875
1.0496040464
1.0149145025
1.0561934835
1.0171545090
1.0528853127
1.0190473333
1.0513260863
1.0552166387
1.0486017360
1.0117553011
1.0598764253
1.0262552689
1.0161642578
1.0527292051
1.0529569011
1.0248080676
1.0414844991
1.0441022298
1.0618939091
1.0615322336
1.0170632503
1.0493930941
1.0611203155
1.0328136190
1.0106900766
1.0619823659
1.0447444042
1.0149235391
1.0101761949
1.0099356139
1.0552361377
1.0171619435
1.0214381966
1.0486533974
1.0318839614
1.0540207724
1.0572064050
1.0195079906
1.0128994926
1.0068763191
1.0139234935
1.0422006110
1.0147941918
1.0345053561
1.0328542810
1.0126459400
1.0147626064
1.0504924146
1.0221717453
1.0256967347
1.0230731405
1.0636828301
1.0054117245
1.0655663483
1.0591093380
1.0170732690
1.0025060600
1.0106902510
1.0397420393
1.0096598432
1.0089993151
1.0168213352
1.0158714367
1.0619221485
1.0602147911
1.0047718445
1.0120338276
1.0493930676
1.0043381108
1.0214565640
1.0195260883
1.0562275630
1.0422506835
1.0186474596
1.0223333333
1.0189562246
1.0070140093
1.0410910027
1.0099289912
1.0505188552
1.0459595692
1.0243714102
1.0372702213
1.0101730249
1.0141220606
1.0032457839
1.0031563764
1.0602435869
1.0028359449
1.0168346163
1.0114477374
1.0184212146
1.0257291086
1.0692716981
1.0661036927
1.0126520347
1.0120335549
1.0282944471
1.0301714263
1.0064005586
1.0054110045
1.0025041337
1.0641116580
1.0393598341
1.0119788253
1.0655691986
1.0274302031
1.0147733357
1.0202355759
1.0650586799
1.0075964297
1.0591467190
1.0039996336
1.0186506879
1.0070904567
1.0592218044
1.0373129171
1.0679122760
1.0223584454
1.0013520845
1.0303258613
1.0033069836
1.0303084336
1.0505655841
1.0018838934
1.0244136275
1.0084296250
1.0647392543
1.0017420865
1.0581989546
1.0306798188
1.0189330499
1.0021636447
1.0361521709
1.0562620784
1.0006449194
1.0394085503
1.0083657835
1.0047569413
1.0028348976
1.0119850713
1.0042867360
1.0283281278
1.0680945448
1.0144109692
1.0184384610
1.0060566928
1.0661071550
1.0019630953
1.0692668805
1.0103437335
1.0479659938
1.0064022437
1.0033064644
1.0006466216
1.0338876662
1.0017404859
1.0628523476
1.0439910043
1.0126298855
1.0084283859
1.0492691566
1.0307173367
1.0303214601
1.0670288174
1.0628994185
1.0015297804
1.0011293780
1.0018301515
1.0354955032
1.0086730836
1.0302787408
1.0433574407
1.0372395111
1.0679105620
1.0019626301
1.0562638236
1.0192348129
1.0531879970
1.0029620391
1.0061305515
1.0028956212
1.0086440288
1.0542074116
1.0071490984
1.0010213480
1.0030568157
1.0028182026
1.0028961288
1.0053720061
1.0065901428
1.0232402986
1.0143776974
1.0006161751
1.0423792622
1.0010844901
1.0248575257
1.0339315634
1.0492707566
1.0126372436
1.0045422737
1.0382987503
1.0016914527
1.0132420688
1.0469884331
1.0507484738
1.0648980850
1.0305630787
1.0367138492
1.0095831331
1.0531867352
1.0010223730
1.0043980470
1.0046796704
1.0566980302
1.0053701833
1.0028953331
1.0295365268
1.0395626578
1.0191970778
1.0006057306
1.0373826410
1.0004419671
1.0061322209
1.0011971941
1.0028979233
1.0618879730
1.0379882718
1.0701433327
1.0363952952
1.0000501303
1.0010858628
1.0045418470
1.0548175102
1.0002041098
1.0018387405
1.0009336231
1.0180963382
1.0247828620
1.0000723832
1.0409925218
1.0007835418
1.0016932974
1.0360121948
1.0577011479
1.0000839636
1.0008900775
1.0566994753
1.0373846431
1.0622928535
1.0434533731
1.0095817975
1.0000377550
1.0379891648
1.0396601294
1.0000474113
1.0420936358
1.0304976040
1.0368381949
1.0003714925
1.0644656575
1.0423670793
1.0686103458
1.0010709302
1.0347104674
1.0605668615
1.0004533043
1.0000720240
1.0389061528
1.0000197461
1.0009328953
1.0579747452
1.0001293583
1.0000678735
1.0480362634
1.0018417420
1.0002507529
1.0001557144
1.0000091297
1.0329762864
1.0521497127
1.0006640492
1.0360134607
1.0363002848
1.0548228752
1.0000500599
1.0701378489
1.0007830273
1.0001190748
1.0003049670
1.0002039467
1.0000259825
1.0485023759
1.0000231662
1.0416433397
1.0527097728
1.0423669341
1.0396603974
1.0006254395
1.0000374346
1.0000094775
1.0643938218
1.0000930723
1.0605751229
1.0453661436
1.0000474631
1.0347133909
1.0420273499
1.0445423059
1.0418163489
1.0003300039
1.0004529453
1.0665633588
1.0004155244
1.0624316840
1.0000377556
1.0400422874
1.0365112832
1.0002052031
1.0000185443
1.0521509504
1.0600585215
1.0000678500
1.0354984098
1.0329777386
1.0479711561
1.0367960796
1.0002507960
1.0000060812
1.0465428695
1.0003045677
1.0684320067
1.0638339994
1.0000008862
1.0664735148
1.0400436305
1.0006268244
1.0001932094
1.0445448995
1.0000094700
1.0004149433
1.0001821484
1.0368436857
1.0000374147
1.0526769452
1.0394510727
1.0000023148
1.0001810790
1.0430871040
1.0003352543
1.0700832212
1.0000514108
1.0394240474
1.0683649727
1.0000013230
1.0358792335
1.0321340326
1.0685966660
1.0000051000
1.0600237203
1.0371734836
1.0291425056
1.0355011689
1.0714513234
1.0000024992
1.0000018774
1.0479839750
1.0368438881
1.0394530414
1.0349360588
1.0000514890
1.0001825066
1.0475575064
1.0003608443
1.0704528124
1.0001807954
1.0000005455
1.0638211826
1.0348987828
1.0328426191
1.0001016795
1.0504587989
1.0725921406
1.0720376155
1.0000123078
1.0000013202
1.0296498303
1.0000024947
1.0000111623
1.0000033598
1.0704556563
1.0335123393
1.0000044081
1.0733100406
1.0525109757
1.0658767238
1.0542417713
1.0616772658
1.0733485084
1.0328411491
1.0762368600
1.0401659459
1.0701430746
1.0567551997
1.0479879245
1.0754699278
1.0373019467
1.0385094947
1.0003621399
1.0512834211
1.0451678773
1.0637657133
1.0591148773
1.0767669593
1.0680423026
1.0560569456
1.0739158581
1.0348969968
1.0413618931
1.0475606784
1.0000255087
1.0777582595
1.0743423798
1.0000111585
1.0105052737
1.0721271551
1.0000033531
1.0320039204
1.0734254867
1.0000533856
1.0019018041
1.0003682306
1.0575658474
1.0770257258
1.0048006329
1.0000062459
1.0197976389
1.0672534973
1.0000141303
1.0006567921
1.0001986899
1.0450823975
1.0736657283
1.0688138916
1.0610691056
1.0433481631
1.0731614904
1.0785232046
1.0567646949
1.0762399319
1.0542482254
1.0463382733
1.0792906645
1.0647129016
1.0578475497
1.0401676714
1.0682299480
1.0596203548
1.0640711501
1.0497181621
1.0720589070
1.0666971487
1.0604765830
1.0385123094
1.0710055773
1.0769890737
1.0534830324
1.0750754589
1.0797511929
1.0627160830
1.0517815414
1.0661803462
1.0591241531
1.0619671680
1.0451711513
1.0146601215
1.0751836836
1.0806490451
1.0773361513
1.0651759770
1.0401782062
1.0619385901
1.0006598076
1.0001049889
1.0001043139
1.0748839817
1.0000078471
1.0006548412
1.0148884340
1.0030538218
1.0702291515
1.0000255236
1.0030919321
1.0382017879
1.0255016436
1.0800465481
1.0728035510
1.0539177492
1.0263329920
1.0700460224
1.0011444458
1.0003696451
1.0000296554
1.0777644762
1.0000268766
1.0003632776
1.0072425816
1.0011243446
1.0072480195
1.0507606767
1.0713057163
1.0642369186
1.0555727112
1.0463414861
1.0619184117
1.0671826749
1.0767915408
1.0820232353
1.0670807570
1.0792995745
1.0632195667
1.0759920059
1.0814472254
1.0713305446
1.0610796939
1.0690715562
1.0636684925
1.0517873762
1.0575491440
1.0651642991
1.0751585187
1.0825309930
1.0653252064
1.0781900161
1.0627269705
1.0736664051
1.0799733233
1.0692615348
1.0585702894
1.0804052939
1.0467284382
1.0712131177
1.0000170494
1.0783760179
1.0046974474
1.0201148452
1.0781323768
1.0048172071
1.0011289551
1.0011017009
1.0001918064
1.0832402158
1.0733238969
1.0486182534
1.0688012951
1.0203294747
1.0001994418
1.0770370526
1.0592977054
1.0617331507
1.0000545179
1.0806600422
1.0018317065
1.0328822921
1.0105916827
1.0019042276
1.0006276972
1.0000584582
1.0826396088
1.0337979821
1.0748437019
1.0105105676
1.0006576393
1.0024440612
1.0821513467
1.0846141085
1.0407437910
1.0697441651
1.0642478837
1.0008728349
1.0056688107
1.0789081930
1.0852264101
1.0843879426
1.0740744781
1.0558593163
1.0134171908
1.0008025079
1.0603311683
1.0797362127
1.0820342627
1.0688418937
1.0736043058
1.0659396409
1.0869716973
1.0894916517
1.0692070899
1.0646726453
1.0776413778
1.0242529410
1.0664152728
1.0040094751
1.0833780360
1.0852408524
1.0490987991
1.0677407225
1.0624502455
1.0003171039
1.0035171519
1.0763071923
1.0824929761
1.0830450601
1.0718910806
1.0474784018
1.0190358060
1.0003398582
1.0575574100
1.0780895083
1.0810607450
1.0670950021
1.0710452383
1.0653352217
1.0877329155
1.0886382693
1.0738112230
1.0619991655
1.0690113176
1.0126353677
1.0657590042
1.0911160112
1.0003339524
1.0856661091
1.0266367217
1.0983966771
1.0017683374
1.0565321525
1.0003563044
1.0634846708
1.0616050585
1.0764139351
1.0069405008
1.0772434868
1.0995640608
1.0829119233
1.0018358992
1.0812081400
1.0951273907
1.0071966482
1.0950135221
1.0000347812
1.0811994430
1.0266940681
1.0761762091
1.0740493486
1.0551185728
1.0958970026
1.0758827811
1.0922364227
1.0001086001
1.0849861435
1.0409823899
1.0972172856
1.0010326939
1.0416981550
1.0011052995
1.0645111633
1.0627329520
1.0723925174
1.0028563278
1.0797814915
1.0988081845
1.0802753978
1.0030159137
1.0832503802
1.0980878632
1.0149140454
1.0984114983
1.0001038716
1.0146681697
1.0785148541
1.0664709317
1.0960044300
1.0682524392
1.0856286552
1.0349646977
1.0264265142
1.0027188141
1.0900295446
1.0852326908
1.0858246206
1.0826581381
1.0719362895
1.0015051073
1.0664470901
1.0066936866
1.0015050167
1.0921105722
1.0767700275
1.0330219741
1.0810391513
1.0894919341
1.0799631514
1.0901555364
1.0878307645
1.0679272607
1.0093797532
1.0008020855
1.0568723912
1.0219154192
1.0330465565
1.0535482224
1.0003185261
1.0637539346
1.0857657591
1.0242378127
1.0826986125
1.0892442514
1.0910689675
1.0016759827
1.0048448710
1.0799712579
1.0773044220
1.0018896843
1.0558493411
1.0056633831
1.0099623210
1.0664245011
1.0846221610
1.0776527950
1.0635003393
1.0013139287
1.0848650843
1.0201940430
1.0143384157
1.0311884241
1.0009731596
1.0909746451
1.0872930622
1.0866922789
1.0767317502
1.0697636847
1.0008726295
1.0587050889
1.0042712713
1.0910890580
1.0743299433
1.0252627778
1.0766169124
1.0921009892
1.0921026063
1.0858087074
1.0671028762
1.0061228160
1.0022259494
1.0416922777
1.0296632893
1.0616599978
1.0001216190
1.0620086037
1.0836738215
1.0805318060
1.0397106589
1.0810825989
1.0901557778
1.0007751941
1.0076716998
1.0774859814
1.0805280805
1.0007539586
1.0690074512
1.0126228871
1.0063925955
1.0651114541
1.0838745447
1.0824990369
1.0565072422
1.0739807973
1.0000668933
1.0440685092
1.0080937901
1.0028577067
1.0790721775
1.0647184376
1.0339668636
1.0797837690
1.0878691834
1.0688585962
1.0780271037
1.0960884847
1.0029334811
1.0677367359
1.0616088701
1.0692894615
1.0006033847
1.0914149373
1.0796541463
1.0148976435
1.0103468152
1.0662701560
1.0809301118
1.0306378210
1.0911199935
1.0740256824
1.0954858480
1.0954836511
1.0842716943
1.0836188921
1.0626006539
1.0022654579
1.0940424110
1.0994327856
1.0658493493
1.0648444544
1.0871915783
1.0891546524
1.0626271572
1.0690752402
1.0867109360
1.0595890014
1.0746490385
1.0713976579
1.0001868799
1.0277396668
1.0124182339
1.0045799334
1.0673648970
1.0491834350
1.0723928865
1.0886536456
1.0813711717
1.0994295014
1.0014657670
1.0666610805
1.0627359849
1.0681358987
1.0017710058
1.0867081559
1.0768265928
1.0069172617
1.0202275518
1.0626312683
1.0729741440
1.0398408379
1.0908491705
1.0764148945
1.0988060406
1.0871465345
1.0821991744
1.0856722817
1.0722004430
1.0014832367
1.0959010084
1.0649825112
1.0645137840
1.0712079578
1.0871371470
1.0874811023
1.0652858906
1.0662682719
1.0857771512
1.0792007356
1.1007523573
1.0677435861
1.0796551065
1.0921092202
1.0658571157
1.0664537898
1.0925636710
1.0871412400
1.1065372579
1.0886866013
1.0907369543
1.0665530928
1.1037903433
1.0031507536
1.0856817762
1.0843932905
1.0562143080
1.0857818638
1.1023150843
1.0844005779
1.0738130409
1.0878335686
1.0852292276
1.0093884091
1.0003169447
1.0936320003
1.0877356672
1.0031484973
1.0980625273
1.0786600823
1.0349660900
1.0190107779
1.0965418447
1.0540838969
1.0856234500
1.0682924181
1.0826693678
1.0737868918
1.0936984235
1.0982014024
1.0084163816
1.0896063314
1.0655301239
1.0005178401
1.0139832525
1.0886392985
1.0460407368
1.0025969010
1.0904119352
1.0659765014
1.0460428393
1.0162817479
1.0739817659
1.1034555975
1.0733879980
1.0712054490
1.0692943500
1.0174874599
1.1044557028
1.0666683746
1.0768269061
1.0948348136
1.0649910215
1.0767381536
1.0936961918
1.0844886552
1.0867152995
1.1058551477
1.0879101437
1.0929438242
1.0668309170
1.1042344037
1.0824550749
1.0473506165
1.0842755792
1.1059767801
1.0865408688
1.0828247321
1.0897870686
1.0827559126
1.0005007761
1.0424349955
1.0018881184
1.1000090907
1.0747280711
1.0516900995
1.0996543698
1.0408241506
1.0670338655
1.0858133858
1.0025988947
1.0948360974
1.0968873419
1.0905161982
1.0698607913
1.0201792807
1.0042663061
1.0896595554
1.0558816955
1.0370129709
1.0099543027
1.0714004079
1.1022687085
1.0676768299
1.0685630418
1.0681412470
1.0143116211
1.0822016522