<VTKFile type="UnstructuredGrid" version="0.1">
	<UnstructuredGrid>
		<Piece NumberOfPoints="1862" NumberOfCells="3498">
			<CellData>
				<DataArray type="Int32" Name="type" NumberOfComponents="1" Format="ascii">
0
0
0
0
0
0
0
0
0
0
0
0
0
0
0
0
1
0
0
1
0
0
0
0
0
0
0
0
0
0
0
0
0
1
0
0
0
0
0
0
0
0
0
0
0
0
0
0
0
0
1
0
0
0
0
0
0
0
0
0
0
1
0
0
0
0
0
0
0
0
0
0
0
0
0
0
0
0
0
0
0
0
0
0
0
0
0
0
0
0
0
0
0
0
0
0
0
0
0
0
0
0
0
0
0
0
0
0
0
0
0
0
0
0
0
0
0
0
0
0
0
0
0
1
0
0
0
0
0
0
0
0
0
0
0
0
0
0
0
0
0
0
0
0
0
0
0
0
0
0
0
1
0
1
1
0
0
0
0
0
0
0
0
0
0
0
0
0
1
0
1
0
0
0
0
1
0
0
0
0
0
0
0
0
1
1
0
0
0
0
0
1
0
0
0
0
0
0
0
0
1
0
0
0
0
0
0
0
0
0
0
0
0
0
0
0
0
0
0
0
0
0
0
0
0
0
0
0
0
0
0
0
0
1
0
0
0
0
0
0
0
0
0
0
0
0
0
0
0
0
0
0
0
0
0
0
0
0
0
0
0
0
0
0
0
0
0
0
0
0
0
0
0
0
0
0
0
0
0
0
0
1
0
0
0
0
0
0
0
0
0
0
0
0
0
0
0
0
0
0
0
0
0
0
0
0
0
0
0
0
0
0
0
0
0
0
0
0
0
0
0
0
0
0
0
0
0
0
0
0
0
0
1
0
0
0
0
0
0
0
0
0
0
0
0
0
0
0
0
0
0
0
0
0
0
0
0
0
0
0
0
0
0
0
0
0
0
0
0
0
0
0
0
0
0
0
0
0
0
0
0
0
0
0
0
0
0
0
0
0
1
0
0
0
0
0
0
0
0
0
0
0
0
0
0
0
0
0
0
0
0
0
0
0
0
0
0
0
0
0
0
0
0
0
0
0
0
0
0
0
0
0
0
0
0
0
0
0
0
0
0
0
0
0
0
0
0
0
0
0
0
0
0
0
0
0
0
0
0
0
0
0
0
0
0
0
0
0
0
0
0
0
0
0
0
0
0
0
0
0
0
0
0
0
0
0
0
0
0
0
0
0
0
0
0
0
0
0
0
0
0
0
0
0
0
0
0
0
0
0
0
0
0
0
0
0
0
0
0
0
0
0
0
1
0
0
0
0
0
0
0
0
0
0
0
0
0
0
0
0
0
0
0
1
0
0
0
0
0
0
0
0
0
0
0
0
0
0
0
0
0
0
0
0
0
0
0
0
0
0
0
0
0
0
0
0
0
0
0
0
0
0
0
0
0
0
0
0
0
0
0
0
0
0
0
0
0
1
0
0
0
0
0
0
0
0
0
0
0
0
0
0
0
0
0
0
0
0
0
0
0
1
0
0
0
0
0
0
0
0
0
0
0
0
0
0
0
0
0
0
0
1
0
0
0
1
0
0
0
0
0
0
0
0
0
0
0
0
0
0
0
0
0
0
0
0
0
0
0
0
0
1
0
0
0
0
0
0
0
1
0
0
0
0
0
0
0
0
0
0
0
0
0
0
0
0
0
0
0
0
0
0
0
0
0
0
1
0
0
0
0
0
0
0
1
0
0
0
0
0
0
1
0
0
0
0
0
0
0
0
0
0
0
0
0
0
0
0
0
0
0
0
0
0
0
0
0
0
0
0
0
0
0
0
0
0
0
0
0
0
1
0
0
0
0
0
1
0
0
0
0
0
0
0
1
0
0
0
0
0
0
0
0
0
0
0
0
0
1
0
0
0
0
0
0
0
0
0
0
0
0
0
0
0
0
0
0
0
0
0
0
0
0
0
0
0
0
0
0
0
0
0
0
0
0
0
0
0
0
0
0
0
0
0
0
0
0
0
0
0
0
0
1
0
0
0
0
0
0
0
0
0
0
0
0
0
0
0
0
0
0
0
1
0
0
0
0
0
0
0
0
0
1
0
0
0
0
0
0
0
0
0
0
0
0
0
0
0
0
0
0
0
0
0
0
0
0
0
0
0
0
0
1
0
1
0
0
0
0
0
0
0
0
0
0
0
0
0
0
0
0
0
0
0
0
0
0
0
0
0
0
0
1
0
0
0
1
0
0
0
0
0
0
0
0
0
0
0
0
0
0
0
0
0
0
0
0
0
0
0
0
0
0
0
0
1
0
0
0
0
0
0
0
0
0
0
0
0
0
0
0
0
0
0
0
0
0
0
0
0
0
1
0
0
0
0
0
0
0
0
0
0
0
0
0
0
0
0
0
0
0
0
0
0
0
1
0
0
0
0
0
0
1
0
0
0
0
0
0
0
0
0
0
0
1
0
0
0
0
0
0
0
0
0
0
0
0
0
0
0
0
0
0
0
0
1
0
0
0
0
0
0
0
0
0
0
0
1
0
0
0
0
0
0
0
0
0
0
0
0
0
0
0
0
0
0
0
0
0
1
0
0
0
0
0
0
0
0
0
1
1
0
1
0
1
0
0
0
0
0
0
0
0
0
0
0
1
0
0
0
0
0
1
1
0
0
0
0
0
0
1
0
0
0
0
0
1
1
1
0
0
0
0
0
0
0
0
0
0
0
0
1
1
0
0
1
0
0
0
0
0
1
0
0
0
1
0
1
0
0
0
0
0
0
0
1
0
0
0
0
0
0
0
1
0
0
1
0
0
0
0
0
0
0
0
0
0
0
0
0
0
0
1
0
0
0
0
0
0
0
0
0
0
0
0
0
0
0
0
0
0
0
0
0
0
0
0
0
0
0
0
0
0
0
0
0
0
0
0
1
0
0
0
0
0
0
1
0
0
0
1
0
0
0
0
0
0
0
0
0
0
0
1
0
0
0
0
0
0
0
0
0
0
0
0
0
0
0
0
0
0
0
0
0
0
0
0
0
0
0
0
0
0
0
0
0
0
0
0
0
0
0
0
1
1
0
0
0
0
0
0
0
0
0
0
0
0
0
1
0
0
0
0
0
0
0
0
0
0
0
0
0
0
0
0
0
0
0
0
0
0
0
0
0
0
0
0
0
0
0
0
0
0
0
0
0
0
0
0
0
0
0
0
0
0
0
0
0
0
0
0
0
0
0
0
0
0
0
0
0
0
0
0
0
0
0
0
0
0
0
0
1
1
0
0
0
0
0
0
0
0
1
0
0
0
0
0
0
0
0
0
0
0
0
0
0
0
0
0
0
0
0
0
0
0
1
0
0
0
0
0
0
0
0
0
0
0
0
0
0
0
0
1
0
0
0
0
0
0
0
0
0
0
0
0
0
0
0
0
0
0
0
0
0
0
0
0
0
0
0
0
0
0
0
0
0
0
0
0
0
0
0
0
0
0
0
0
0
0
0
0
0
0
0
0
0
0
0
0
0
0
0
0
0
0
0
0
0
0
0
0
0
0
0
0
0
0
0
0
0
0
0
0
0
0
0
0
0
0
0
0
0
0
1
1
0
0
0
0
0
1
0
0
0
0
0
0
0
0
0
0
0
0
1
0
0
0
0
0
0
0
0
0
0
0
0
0
0
0
0
0
0
0
0
0
0
0
0
0
0
0
0
0
0
0
0
0
0
0
0
0
0
0
0
0
0
0
0
0
0
0
0
0
0
0
0
0
1
0
1
0
0
0
0
0
0
0
0
0
0
0
0
0
0
0
0
0
0
1
0
0
0
0
0
0
0
0
0
0
0
0
0
0
0
0
0
0
0
0
0
0
0
0
0
0
0
0
0
0
0
0
0
0
0
0
0
0
0
0
0
0
0
0
0
0
0
0
0
0
0
0
0
0
0
0
0
0
0
0
0
0
0
0
0
0
0
0
0
0
1
0
0
0
0
0
0
0
0
0
0
1
0
0
0
0
0
0
0
0
0
0
0
0
0
0
0
0
0
0
0
0
0
0
0
0
0
0
0
0
0
0
0
0
0
0
0
0
0
1
0
0
0
0
0
0
0
0
0
0
0
0
0
0
0
0
0
0
0
0
0
0
0
0
0
0
0
0
0
0
0
0
0
0
0
0
0
0
0
0
0
0
0
0
0
0
0
0
0
0
0
0
0
0
0
0
0
0
0
0
0
0
0
0
0
0
0
0
0
0
0
0
0
0
0
0
0
0
0
0
0
1
0
0
0
0
0
0
0
0
0
0
0
0
0
0
0
0
0
0
0
0
0
0
0
0
0
0
0
0
0
0
0
0
0
0
0
0
0
0
0
0
0
0
0
0
0
0
0
0
0
0
0
0
0
0
0
0
0
0
0
0
0
0
0
0
0
0
0
0
0
0
0
0
0
0
0
0
0
0
0
0
0
0
0
0
0
0
0
0
0
0
0
0
0
0
0
0
0
0
0
0
0
0
0
0
0
0
0
0
0
0
0
0
0
0
0
0
0
0
0
0
0
0
0
1
0
0
0
0
0
0
0
0
0
0
0
0
0
0
0
0
0
0
0
0
0
0
0
0
0
0
0
0
0
0
0
0
0
0
0
0
0
0
0
0
0
0
0
0
0
0
0
0
0
0
0
0
0
0
0
0
0
0
0
0
0
0
0
0
0
0
0
0
0
0
0
0
0
0
0
0
0
0
0
0
0
1
0
0
0
0
0
0
0
1
0
0
0
0
0
0
0
0
0
0
0
0
0
0
0
0
0
0
0
0
0
0
0
0
0
0
0
0
0
0
0
0
0
0
0
0
0
1
0
0
0
0
0
0
0
0
0
0
0
0
0
0
0
0
0
0
0
0
0
1
0
0
0
0
0
0
0
0
0
0
0
0
1
1
0
0
0
0
0
0
0
0
0
0
0
0
0
0
0
1
1
0
1
0
0
0
0
0
0
0
0
0
1
0
0
0
0
0
0
1
0
0
0
0
0
0
0
0
0
0
1
0
0
0
0
1
0
1
0
0
0
0
0
0
0
1
0
0
0
1
0
0
0
1
0
1
1
0
0
1
1
0
0
0
1
0
0
0
1
0
0
0
0
0
0
0
0
0
1
0
0
0
0
0
0
1
0
0
0
0
0
0
0
0
0
0
0
0
0
0
0
0
0
0
0
0
0
0
0
0
0
0
0
1
0
0
1
0
0
0
0
0
0
0
0
0
0
0
0
0
0
0
0
0
0
1
0
0
1
0
0
0
0
0
0
0
0
0
0
0
1
0
0
1
0
0
0
0
0
0
0
0
0
0
0
1
1
0
0
0
0
0
0
0
0
0
0
0
0
1
0
0
0
0
0
0
0
0
0
0
0
0
0
0
0
0
0
1
0
0
0
0
0
0
0
0
0
0
0
0
0
0
0
0
0
1
0
0
0
0
0
0
0
0
0
0
0
0
0
0
0
0
0
0
0
0
0
0
0
0
0
0
0
0
0
0
0
0
0
0
0
0
0
0
0
0
1
0
0
0
0
0
0
0
0
0
0
0
0
0
0
0
0
0
0
0
0
0
0
0
0
0
0
0
0
0
0
0
0
0
0
0
0
0
0
0
0
0
0
0
0
0
1
0
0
0
0
0
0
0
0
0
0
0
0
0
0
0
0
0
0
0
0
0
0
0
0
0
0
0
0
0
0
0
0
0
0
0
0
0
0
0
0
0
0
0
0
0
0
0
1
0
0
0
0
0
0
0
0
0
0
1
0
0
0
0
0
0
0
0
0
0
0
0
0
0
0
1
0
0
1
0
0
0
0
0
0
0
0
0
0
0
0
0
0
0
0
0
0
0
0
0
0
0
1
0
0
0
0
0
0
0
0
0
0
0
0
0
0
0
0
0
0
0
0
0
0
0
0
0
0
0
0
0
0
0
0
0
0
0
1
0
0
0
0
0
0
0
0
0
0
0
0
0
0
0
0
0
0
0
0
0
0
0
0
0
0
0
0
0
0
0
0
0
0
0
0
0
0
0
0
0
0
0
0
0
0
0
0
0
0
0
0
0
0
0
0
0
0
0
0
0
0
0
0
0
0
0
0
0
0
0
0
0
0
0
0
1
0
0
0
0
0
0
0
0
0
0
0
0
0
0
0
0
0
0
0
0
0
0
0
0
0
0
0
0
0
0
0
0
0
0
0
0
0
0
0
1
0
0
0
0
0
0
0
0
0
0
0
0
1
1
0
0
0
0
0
0
0
0
0
0
0
0
0
0
0
0
0
0
0
0
0
0
0
0
0
0
0
0
0
0
0
0
0
0
0
0
0
0
0
0
0
0
0
0
0
0
0
0
0
0
0
0
0
0
0
0
0
0
0
0
0
0
0
0
0
0
0
0
0
0
0
0
0
0
0
0
0
0
0
0
0
0
0
0
0
0
0
0
0
0
0
0
0
0
0
0
0
0
0
0
0
1
0
1
0
0
0
0
0
0
0
1
1
1
1
0
0
0
0
0
0
0
0
0
0
0
0
0
0
0
0
0
0
0
0
0
0
0
0
0
0
0
0
1
1
0
0
0
0
0
0
0
0
0
0
0
0
0
0
0
0
0
0
1
0
0
0
0
0
0
0
1
1
0
1
1
0
0
1
0
0
0
0
0
0
0
1
0
1
0
0
0
0
0
0
0
0
0
0
0
0
0
0
0
0
0
0
0
0
0
0
0
0
0
0
0
1
1
0
0
0
1
1
0
0
0
0
1
0
0
1
0
1
0
0
0
0
0
1
0
0
0
1
0
0
0
0
0
0
0
0
0
0
0
0
0
0
0
0
0
0
0
0
0
0
0
0
0
0
0
1
0
0
0
0
0
0
1
0
0
0
0
0
0
0
0
0
0
0
0
0
0
0
0
0
0
0
0
0
0
0
0
0
0
0
0
0
1
0
1
0
0
0
0
0
0
0
1
0
0
0
0
0
0
0
0
0
0
0
1
0
0
0
0
0
0
0
0
0
1
0
0
0
0
0
0
0
1
0
0
0
0
0
0
0
1
0
0
0
0
0
0
0
0
0
0
0
0
0
0
0
0
0
0
0
1
0
1
0
0
0
0
0
1
0
0
0
0
0
0
0
0
0
0
0
0
0
0
0
0
0
0
0
0
0
0
0
0
0
1
0
1
0
0
0
0
0
0
0
0
0
1
0
0
0
0
0
1
0
0
0
0
0
0
0
0
0
0
0
0
0
0
0
1
0
0
0
0
0
0
0
0
1
0
0
0
0
0
0
0
0
0
0
0
0
0
0
0
0
0
0
0
0
0
0
0
0
0
0
0
0
0
0
1
0
0
0
0
0
0
0
0
0
0
0
0
0
0
0
0
1
0
0
0
0
0
0
0
0
1
0
0
0
0
0
0
0
0
0
1
0
0
0
0
0
1
0
0
0
0
0
0
0
0
0
0
0
0
0
0
0
0
0
0
0
1
0
0
0
0
0
0
1
0
0
0
0
0
0
0
0
1
0
0
0
0
0
0
0
0
0
0
0
0
0
0
1
0
0
1
0
0
0
1
0
0
0
0
0
0
0
0
0
0
0
0
0
0
0
0
1
0
0
0
0
0
0
0
0
0
0
1
0
1
0
0
0
0
0
0
1
0
0
0
0
0
0
0
0
0
0
0
0
0
0
0
0
0
0
0
0
0
0
0
0
0
0
0
1
1
0
0
0
0
0
0
1
0
0
0
0
0
0
0
0
0
0
0
0
0
1
0
0
0
0
0
0
0
1
0
0
0
0
0
0
0
0
0
0
0
0
0
0
0
0
0
0
0
0
0
0
0
0
0
0
0
1
0
0
0
0
0
0
0
0
0
0
1
0
0
1
0
0
0
0
0
0
0
0
0
0
0
0
0
0
0
0
0
0
0
0
0
0
0
0
0
0
0
0
0
1
0
0
0
0
0
0
0
1
0
0
0
0
0
0
0
1
0
0
0
0
1
0
0
0
0
0
0
0
0
0
0
0
1
0
1
0
0
0
1
0
				</DataArray>
				<DataArray type="Float64" Name="h" NumberOfComponents="1" Format="ascii">
1.1896982828
1.1897040025
1.1890314628
1.1892527147
1.1890635456
1.1890771908
1.1891117046
1.1896944653
1.1894235885
1.1901564910
1.1894321366
1.1889772592
1.1897917928
1.1896210520
1.1896522765
1.1904386643
1.1891642707
1.1900794108
1.1897871916
1.1894564742
1.1889247836
1.1900855319
1.1896321603
1.1890529274
1.1892490782
1.1908026626
1.1901187292
1.1898397723
1.1894109890
1.1898311838
1.1895951642
1.1894485141
1.1902712300
1.1889334405
1.1888825758
1.1891964417
1.1888429429
1.1898344983
1.1897744013
1.1889387828
1.1892035792
1.1894438212
1.1899382138
1.1895871505
1.1890167840
1.1896855617
1.1896339214
1.1889092852
1.1915100348
1.1914073270
1.1888093570
1.1893757569
1.1893698786
1.1898442229
1.1891940289
1.1901469712
1.1894191843
1.1890300515
1.1893305798
1.1894592586
1.1893207538
1.1891325861
1.1910970338
1.1891719091
1.1895975836
1.1900253457
1.1913388329
1.1909863397
1.1892485846
1.1890374565
1.1892182008
1.1890356770
1.1900445244
1.1899800362
1.1896243217
1.1906140979
1.1890172568
1.1895215294
1.1888921551
1.1902923030
1.1896353673
1.1900727319
1.1925082971
1.1909071372
1.1903549739
1.1905321158
1.1898320566
1.1909394126
1.1898963636
1.1924121772
1.1902788660
1.1904153405
1.1896214611
1.1923034109
1.1904964916
1.1903637739
1.1910183147
1.1900934797
1.1900731290
1.1899159676
1.1922863454
1.1895518236
1.1904648856
1.1888587562
1.1907375750
1.1914336381
1.1909488750
1.1917360267
1.1896625004
1.1903354239
1.1920693217
1.1921831722
1.1899789376
1.1906485770
1.1904179120
1.1910255321
1.1902937601
1.1905073392
1.1911063590
1.1904288669
1.1906722502
1.1908020919
1.1909577897
1.1910860439
1.1904074586
1.1916243336
1.1902726571
1.1912268169
1.1905604471
1.1912283257
1.1906060471
1.1907976835
1.1903152195
1.1905329800
1.1903563909
1.1907530765
1.1910584121
1.1909149137
1.1898699965
1.1905389372
1.1914942992
1.1906897936
1.1907633645
1.1904198062
1.1907869564
1.1903186995
1.1907433954
1.1918755522
1.1909328295
1.1919339333
1.1912565694
1.1907032731
1.1910664875
1.1914471533
1.1897031188
1.1913790005
1.1910954015
1.1911302854
1.1916930303
1.1923380456
1.1905690107
1.1916284453
1.1909097869
1.1917063079
1.1911845160
1.1918389000
1.1903391979
1.1907767127
1.1919349075
1.1915013653
1.1909462861
1.1924596570
1.1913322288
1.1913999863
1.1904182687
1.1913198306
1.1904526660
1.1925952624
1.1913436681
1.1918075688
1.1915174714
1.1904834472
1.1923662482
1.1912636516
1.1921765217
1.1936845695
1.1903570325
1.1915760097
1.1923930627
1.1943763009
1.1906522065
1.1912849847
1.1930847109
1.1904928995
1.1913412934
1.1924032613
1.1917411717
1.1909144847
1.1907147509
1.1924177018
1.1944619076
1.1914452917
1.1939470591
1.1918253719
1.1912761032
1.1924695736
1.1909480441
1.1913912233
1.1910100842
1.1906600661
1.1908575044
1.1932998759
1.1921036275
1.1928075199
1.1911482651
1.1911023305
1.1907642811
1.1920830176
1.1906969647
1.1926683562
1.1914203609
1.1927702857
1.1906309539
1.1924882163
1.1918222900
1.1928503316
1.1929433791
1.1921218958
1.1917543221
1.1928731334
1.1923215988
1.1926428684
1.1919485423
1.1926986813
1.1929415559
1.1923098003
1.1910301140
1.1911479169
1.1930352140
1.1909391480
1.1912312137
1.1915192457
1.1924045813
1.1907172378
1.1913690874
1.1909588224
1.1924425690
1.1908290170
1.1913264083
1.1920771981
1.1910085558
1.1910460280
1.1920535476
1.1913294217
1.1915088495
1.1927422353
1.1907966632
1.1911565423
1.1928102404
1.1927678793
1.1909489379
1.1923460491
1.1926654990
1.1930576300
1.1920615231
1.1931328725
1.1934007117
1.1919003009
1.1929384054
1.1933847452
1.1935569305
1.1907253463
1.1930145522
1.1924063366
1.1926078872
1.1922502226
1.1924869491
1.1928612634
1.1932372289
1.1919565805
1.1930957004
1.1932229482
1.1930679073
1.1935168237
1.1934932058
1.1929039765
1.1922099960
1.1913730386
1.1924244585
1.1924315047
1.1911723086
1.1914226864
1.1916948225
1.1915489893
1.1912340964
1.1916121276
1.1910066164
1.1915216416
1.1921497237
1.1927444440
1.1927763449
1.1913467331
1.1911877287
1.1919215520
1.1917580533
1.1912705401
1.1913986594
1.1910505049
1.1920931922
1.1928701465
1.1929597993
1.1932333103
1.1934644306
1.1923806471
1.1942040574
1.1933630102
1.1912744845
1.1936466632
1.1939808910
1.1910502674
1.1936603102
1.1926003469
1.1940238559
1.1937204807
1.1930363394
1.1927668221
1.1934463003
1.1936251937
1.1931678569
1.1935241837
1.1937246156
1.1941285478
1.1937624397
1.1927426280
1.1938588763
1.1924695583
1.1941420435
1.1914036891
1.1959810467
1.1915308634
1.1919901823
1.1913041243
1.1924909509
1.1918206761
1.1918936024
1.1916147812
1.1917368144
1.1925281439
1.1965455346
1.1946318353
1.1923275156
1.1959148662
1.1915510959
1.1922078785
1.1969580458
1.1915402942
1.1954131918
1.1917487097
1.1913151514
1.1967183512
1.1963856847
1.1967451575
1.1927777665
1.1915523093
1.1921883138
1.1917383101
1.1940854854
1.1947409727
1.1952796867
1.1928768325
1.1961711171
1.1972381111
1.1922860169
1.1946010239
1.1939833225
1.1942836914
1.1943500653
1.1933341896
1.1948821615
1.1933837479
1.1928503352
1.1943039803
1.1940158519
1.1915976232
1.1946862072
1.1913811091
1.1931387994
1.1935464956
1.1938075597
1.1924013460
1.1943383164
1.1932206625
1.1937693610
1.1939909153
1.1947796584
1.1945029427
1.1940304635
1.1924943940
1.1923116743
1.1932019389
1.1935822979
1.1943854354
1.1928772473
1.1941667166
1.1935727870
1.1942216112
1.1948169001
1.1929758642
1.1933324001
1.1926048763
1.1940464607
1.1943408364
1.1955073224
1.1950458452
1.1916395648
1.1964719178
1.1957862280
1.1915989367
1.1961784597
1.1941676478
1.1944023815
1.1938658734
1.1919377927
1.1965102905
1.1970552481
1.1950096747
1.1955551153
1.1926191646
1.1970768642
1.1922152094
1.1949479623
1.1975195404
1.1965234775
1.1972937014
1.1957926464
1.1956060787
1.1986188827
1.1956824596
1.1957312155
1.1946542143
1.1953988967
1.1971298249
1.1917658257
1.1979596986
1.1953646201
1.1915785579
1.1944389065
1.1961497060
1.1952769019
1.1977447020
1.1970913331
1.1952727346
1.1928774355
1.1939230606
1.1919150854
1.1938653814
1.1983614625
1.1980406690
1.1962522514
1.1985044382
1.1923697500
1.1926097950
1.1918635014
1.1946140726
1.1917099348
1.1946254104
1.1947246284
1.1936653406
1.1935069599
1.1921418983
1.1950204640
1.1918821173
1.1949839485
1.1922690537
1.1932981282
1.1941400451
1.1994157803
1.1926304004
1.1927886050
1.1934779151
1.1931763986
1.1930118781
1.1919750168
1.1948634306
1.1997716162
1.1994334703
1.1950737982
1.1928128494
1.1943891045
1.1923613683
1.1958674876
1.1934641918
1.1999617327
1.1925606720
1.1940302334
1.1922911679
1.1918281612
1.2001674025
1.1948297237
1.1932807094
1.1983583607
1.1989177151
1.1924683269
1.1923113218
1.1932013768
1.1920296902
1.1938943606
1.1930212946
1.1935098828
1.1965483332
1.1928130957
1.1925973804
1.1974947769
1.1918819955
1.1948280361
1.1927884473
1.1975948676
1.1950077546
1.1928630346
1.1920799870
1.1925971981
1.1958171363
1.1956755125
1.1963858270
1.1920875515
1.1983623205
1.1944647085
1.1966395292
1.1943374368
1.1926975453
1.1974507851
1.1918636974
1.1966824548
1.1923287055
1.1921417795
1.1936252606
1.1925603389
1.1918282464
1.1930213477
1.1943370620
1.1930117605
1.1932923927
1.1921269202
1.1930661150
1.1926450436
1.1920461136
1.1946021112
1.1922687675
1.1929643409
1.1920717835
1.1983137635
1.1923493383
1.1921880896
1.1943315198
1.1926724323
1.1947284719
1.1930768333
1.1923365434
1.1979447677
1.1980092908
1.1924043983
1.1931076954
1.1980384854
1.1919751325
1.1939681183
1.1956808171
1.1920294148
1.1947227088
1.1971542906
1.1952690600
1.1921985315
1.1963958257
1.1985061264
1.1969449546
1.1941670305
1.1930802319
1.1937131398
1.1953719880
1.1974939399
1.1926936564
1.1922462889
1.1952743916
1.1983576315
1.1948009734
1.1959650742
1.1925342772
1.1957295786
1.1955051105
1.1944376863
1.1902383022
1.1955526429
1.1935171305
1.1924107200
1.1940529345
1.1907447599
1.1939229016
1.1930091057
1.1932564450
1.1998593738
1.1928673138
1.1938976297
1.1924576783
1.1994965728
1.1922750877
1.1950072815
1.1918445199
1.1931825216
1.1996936791
1.1957850510
1.1908348268
1.1928075099
1.1927138204
1.1993686670
1.1901999173
1.1953717549
1.1923794596
1.1972616184
1.1923285761
1.1921981623
1.1926972010
1.1920876111
1.1979775810
1.1951675616
1.1928991773
1.1928629894
1.1923069230
1.1869505535
1.2005771676
1.1926721977
1.1907728510
1.1931823773
1.1883335984
1.1916796337
1.1930765245
1.1920797420
1.1924040041
1.1921881224
1.1995418081
1.2009262097
1.1985884612
1.1965996158
1.1930662721
1.1928476903
1.1935024055
1.1929198354
1.1995964207
1.1989434846
1.1943313346
1.1923582351
1.1998959696
1.1841922054
1.1922429208
1.1932152652
1.1924627412
1.1816846450
1.1926175742
1.1932860702
1.1920460505
1.1989069033
1.1922019222
1.1934020238
1.1927162074
1.1979323346
1.2001074164
1.2011321020
1.1982283854
1.1856387119
1.1923870272
1.1929821972
1.1922780911
1.2008031007
1.2010437871
1.1936249327
1.1923601066
1.1934278716
1.1896409417
1.1996664121
1.1886669305
1.1900195585
1.2021028748
1.2015991465
1.1927331033
1.1924913030
1.2001388171
1.1920677003
1.1917428024
1.1865534513
1.2009822316
1.2018138282
1.2014860909
1.1916724829
1.1913983572
1.1855326725
1.1881872782
1.1892360622
1.2007428367
1.2013796776
1.1992056768
1.2000096016
1.1812985787
1.2018979986
1.2023813842
1.1873648639
1.2009272634
1.2002127032
1.1908352328
1.2025939875
1.1923488164
1.2015601455
1.1925163137
1.1920633183
1.2025190086
1.1902002430
1.2021234409
1.2016359723
1.1931073065
1.2011773211
1.1939403047
1.1964442974
1.2007549396
1.2006912637
1.1942615257
1.1895241982
1.1892785331
1.1892841958
1.1895302216
1.1891292408
1.1889730304
1.1894277440
1.1895143180
1.1892840196
1.1890728865
1.1890680426
1.1892896874
1.1894284432
1.1896473530
1.1891069243
1.1898727115
1.1895193125
1.1891335588
1.1900257963
1.1900759351
1.1892569979
1.1890356242
1.1897820358
1.1898271472
1.1902874028
1.1890425250
1.1896991691
1.1908007948
1.1892450779
1.1901601696
1.1901865809
1.1897968014
1.1889282585
1.1904116822
1.1897330765
1.1898770936
1.1895911285
1.1900300016
1.1889298759
1.1902673903
1.1894424621
1.1902426361
1.1889349703
1.1900433861
1.1891680560
1.1904418508
1.1899360945
1.1897750250
1.1890464819
1.1902905545
1.1891978740
1.1896253273
1.1894603445
1.1889320903
1.1896372726
1.1888785562
1.1900885371
1.1888779124
1.1901905822
1.1889284625
1.1897385115
1.1899703666
1.1897811330
1.1889071966
1.1904148010
1.1890129335
1.1888062151
1.1896295825
1.1898409968
1.1890570011
1.1894171844
1.1894139873
1.1900203442
1.1901220834
1.1889060907
1.1905858708
1.1900410220
1.1892689003
1.1888001321
1.1902459638
1.1893637452
1.1888805256
1.1916235981
1.1908767298
1.1899735395
1.1888812594
1.1890238489
1.1897828629
1.1892013016
1.1895950110
1.1898363171
1.1891146313
1.1888850902
1.1910963496
1.1909851030
1.1896153504
1.1888461575
1.1891675097
1.1892719676
1.1890839220
1.1891263432
1.1895909747
1.1899778383
1.1896210676
1.1890326123
1.1900432238
1.1890592749
1.1901369508
1.1897832942
1.1889091509
1.1892734828
1.1888025602
1.1894485166
1.1890160804
1.1892172394
1.1898334508
1.1896228002
1.1900188862
1.1898734465
1.1892482049
1.1887632201
1.1905888819
1.1890367898
1.1890272414
1.1891171185
1.1901382796
1.1896189552
1.1907929642
1.1891683413
1.1915277416
1.1915109042
1.1893815483
1.1908782077
1.1896881025
1.1900716660
1.1909061001
1.1896713874
1.1916244803
1.1914085175
1.1893206116
1.1891327547
1.1898737540
1.1895084726
1.1898348834
1.1893318565
1.1893246034
1.1896231894
1.1905192015
1.1901661918
1.1890855891
1.1887658439
1.1893411018
1.1891975248
1.1893041972
1.1890600075
1.1892731503
1.1901488766
1.1899060996
1.1894705089
1.1901360408
1.1898459868
1.1891278373
1.1894610758
1.1904185368
1.1890312521
1.1897831519
1.1896217165
1.1907944622
1.1888572454
1.1900743824
1.1896738182
1.1902891615
1.1891705444
1.1895530689
1.1914553717
1.1898531186
1.1907719052
1.1900267982
1.1922860093
1.1913396824
1.1888301096
1.1900968832
1.1894021695
1.1903652122
1.1895066972
1.1915286735
1.1899170425
1.1914333016
1.1901373249
1.1923673445
1.1899080299
1.1896619011
1.1921815683
1.1895079680
1.1894716579
1.1899793004
1.1893433067
1.1906117032
1.1921894082
1.1893265745
1.1895217783
1.1901659756
1.1901887202
1.1905170092
1.1920672933
1.1903352693
1.1893047523
1.1898526815
1.1923658921
1.1900040734
1.1894013818
1.1905293093
1.1908022486
1.1900098016
1.1888320619
1.1908889100
1.1895087573
1.1907730248
1.1903526130
1.1902892943
1.1898307439
1.1925076483
1.1896343537
1.1902925364
1.1888937140
1.1914557743
1.1906694067
1.1909395098
1.1902875254
1.1901875286
1.1907991493
1.1919531344
1.1908925031
1.1916242362
1.1900968109
1.1905294204
1.1898969473
1.1904953798
1.1923051573
1.1913558327
1.1924131473
1.1902780311
1.1912189370
1.1889399880
1.1904069035
1.1902704925
1.1921911670
1.1912307339
1.1904653115
1.1917426105
1.1920725318
1.1900057581
1.1908910425
1.1900105732
1.1909896487
1.1903532164
1.1907543898
1.1903140005
1.1907399654
1.1910176706
1.1907895861
1.1918194277
1.1906868800
1.1905096749
1.1908938884
1.1913541639
1.1906482336
1.1917364370
1.1907658615
1.1889410954
1.1905287429
1.1904192579
1.1909302119
1.1919547176
1.1907657117
1.1914440659
1.1910229466
1.1900968954
1.1903203557
1.1912184562
1.1909466110
1.1906447287
1.1908320933
1.1919722073
1.1908417277
1.1917413442
1.1909899293
1.1913528203
1.1907235188
1.1918548874
1.1899642869
1.1904304679
1.1920736788
1.1907072659
1.1905104523
1.1902012499
1.1911053445
1.1901058071
1.1912553182
1.1910704494
1.1897047670
1.1907675398
1.1914467229
1.1907745410
1.1911824308
1.1905108027
1.1915721400
1.1906476003
1.1915350382
1.1921082532
1.1915717406
1.1918199696
1.1910889805
1.1905576027
1.1905665672
1.1908252022
1.1909559134
1.1906041688
1.1900769519
1.1909079983
1.1903412301
1.1916326791
1.1912293665
1.1916977353
1.1899625310
1.1910603248
1.1905293610
1.1912371961
1.1916500804
1.1918544069
1.1910863282
1.1909113194
1.1913371889
1.1898675026
1.1912632705
1.1898679389
1.1901093861
1.1919726189
1.1913540099
1.1908373519
1.1908304034
1.1901992116
1.1915052321
1.1902029713
1.1907202279
1.1909509751
1.1913984134
1.1919291273
1.1923640367
1.1914366721
1.1908277064
1.1915373364
1.1919839046
1.1913835096
1.1915175716
1.1904226599
1.1918713943
1.1907457272
1.1918056790
1.1921038622
1.1900803575
1.1915709830
1.1922052857
1.1914964738
1.1915203904
1.1903387343
1.1904509123
1.1900270368
1.1905419739
1.1915675484
1.1920191527
1.1923905889
1.1913754957
1.1910904817
1.1912641934
1.1915288055
1.1912329365
1.1904019833
1.1898710636
1.1916494592
1.1921738608
1.1910830659
1.1914422800
1.1911320757
1.1902001024
1.1903571473
1.1913063127
1.1913464209
1.1903407913
1.1920213494
1.1919819076
1.1924063517
1.1922073398
1.1915125843
1.1900245428
1.1920477794
1.1927075485
1.1913789445
1.1914354783
1.1916905100
1.1912901092
1.1903783031
1.1917082281
1.1918361514
1.1904941697
1.1924023465
1.1923402996
1.1914473657
1.1916686997
1.1924622054
1.1939445868
1.1904187117
1.1918305603
1.1915271184
1.1919375588
1.1944593954
1.1904051517
1.1907164291
1.1918781424
1.1913385342
1.1917310672
1.1927098074
1.1916928849
1.1932973874
1.1923978679
1.1920443705
1.1921745172
1.1925691095
1.1904828177
1.1903750254
1.1913147452
1.1913041259
1.1935137081
1.1938035047
1.1925915308
1.1921017769
1.1910116934
1.1906511214
1.1923269784
1.1916635537
1.1943788970
1.1918729622
1.1920465860
1.1921737425
1.1912618856
1.1936868673
1.1915709318
1.1914224322
1.1924404760
1.1909570818
1.1916598958
1.1913683617
1.1909133350
1.1938061231
1.1914444384
1.1928209278
1.1907159730
1.1917159487
1.1917326991
1.1910304907
1.1930872120
1.1931990690
1.1925669209
1.1917427323
1.1928623518
1.1911553242
1.1916791273
1.1913299487
1.1907948297
1.1920521529
1.1908291781
1.1935164815
1.1930322911
1.1921765513
1.1925452614
1.1917347960
1.1912745900
1.1920415091
1.1929014873
1.1907249105
1.1921684646
1.1926075610
1.1919587538
1.1930726441
1.1930946969
1.1929683537
1.1922120422
1.1919016023
1.1930122602
1.1924122194
1.1927661829
1.1920640135
1.1929441647
1.1931385940
1.1931357668
1.1924073134
1.1908568207
1.1911710589
1.1917705400
1.1926708097
1.1910056653
1.1914228096
1.1917170141
1.1914435756
1.1916611640
1.1925634198
1.1918902204
1.1915487507
1.1924230111
1.1928234371
1.1906620461
1.1913920676
1.1909500341
1.1924718035
1.1906968021
1.1913459904
1.1920924582
1.1932018706
1.1910491650
1.1911877079
1.1920846559
1.1911015997
1.1917581604
1.1917921708
1.1927295807
1.1907667087
1.1916799574
1.1911495957
1.1928651182
1.1926451534
1.1910498688
1.1921982471
1.1924713193
1.1927699325
1.1931690939
1.1919461218
1.1931377116
1.1929376708
1.1936292946
1.1917526408
1.1926931336
1.1935671088
1.1935222587
1.1937227348
1.1906318344
1.1925402035
1.1928750714
1.1923089610
1.1924891360
1.1923811810
1.1926031308
1.1929623361
1.1933625753
1.1918201086
1.1929436360
1.1929665197
1.1934701401
1.1917343246
1.1928448755
1.1937224841
1.1936441290
1.1937512623
1.1927729799
1.1921199403
1.1914028313
1.1918992301
1.1924063415
1.1925658505
1.1924902423
1.1911493311
1.1912309703
1.1923339092
1.1917368764
1.1918900690
1.1915195442
1.1913035410
1.1918207368
1.1909404223
1.1917709797
1.1915506602
1.1922077653
1.1927320387
1.1927199580
1.1913271784
1.1910459825
1.1921881949
1.1919547530
1.1915085521
1.1917923824
1.1913142521
1.1915523721
1.1910102323
1.1920782531
1.1929767999
1.1928590094
1.1933355138
1.1932172062
1.1922491288
1.1943838749
1.1932386346
1.1913809292
1.1934958676
1.1937514187
1.1942017502
1.1942249420
1.1926559518
1.1909494726
1.1937719996
1.1924840108
1.1941664487
1.1935138561
1.1931409739
1.1926624303
1.1935498038
1.1933957508
1.1921983983
1.1944024880
1.1930570618
1.1933874049
1.1935583190
1.1943514033
1.1940211211
1.1928502077
1.1939846225
1.1923439035
1.1943025526
1.1935664475
1.1964738812
1.1949489788
1.1927639304
1.1961806259
1.1913739554
1.1918991244
1.1962887894
1.1970582682
1.1915987682
1.1950638160
1.1922152523
1.1912348365
1.1964438332
1.1965121048
1.1967356542
1.1924326472
1.1916119984
1.1923342989
1.1919379352
1.1916390633
1.1916947079
1.1943414825
1.1944528592
1.1956079443
1.1926190063
1.1957701036
1.1969244108
1.1920743187
1.1963083759
1.1946093562
1.1926095652
1.1958107709
1.1915220165
1.1921501488
1.1959837310
1.1972389706
1.1915781158
1.1954118624
1.1919152662
1.1912716054
1.1968348407
1.1962194001
1.1963887379
1.1927218762
1.1913985944
1.1919215266
1.1921414893
1.1917655684
1.1919545193
1.1940882396
1.1947072565
1.1952241021
1.1927873033
1.1961208233
1.1970427872
1.1923699706
1.1924905337
1.1948661582
1.1930968638
1.1938586004
1.1938041270
1.1948721346
1.1943920935
1.1941264620
1.1934780894
1.1936399114
1.1925008123
1.1950735631
1.1923617703
1.1931051059
1.1934644756
1.1944029749
1.1927421761
1.1929485542
1.1941441730
1.1936775878
1.1937568290
1.1917100345
1.1948311414
1.1912747340
1.1930336215
1.1934430955
1.1925332891
1.1938965399
1.1924688213
1.1946185909
1.1932977820
1.1936582517
1.1938980573
1.1950216960
1.1946278501
1.1942017478
1.1936628130
1.1937993045
1.1927359592
1.1950887653
1.1924951088
1.1931636704
1.1936665025
1.1942056433
1.1926565054
1.1928678392
1.1940252416
1.1935074352
1.1939767865
1.1949842885
1.1928685516
1.1932299178
1.1926309035
1.1941429254
1.1943311914
1.1982599756
1.1953644453
1.1955762600
1.1950083936
1.1950630893
1.1958180441
1.1966999487
1.1916153527
1.1961981710
1.1975840643
1.1955871532
1.1962002102
1.1949802225
1.1915311715
1.1960448250
1.1941110128
1.1944523412
1.1949115337
1.1938829871
1.1957867716
1.1918933520
1.1963096506
1.1967330294
1.1949123511
1.1979467856
1.1960468905
1.1974524898
1.1952675840
1.1925286946
1.1936730283
1.1969222862
1.1919900704
1.1940849668
1.1944029811
1.1983161865
1.1980115288
1.1949102498
1.1966837188
1.1978484945
1.1964419737
1.1970560524
1.1985498693
1.1920739563
1.1927645458
1.1957688039
1.1955280529
1.1970577270
1.1946312668
1.1984630964
1.1955125116
1.1970789684
1.1954712387
1.1947544084
1.1947401976
1.1954609533
1.1971563606
1.1917385041
1.1962862066
1.1980155035
1.1958057404
1.1952330757
1.1915408897
1.1963835123
1.1943719624
1.1942031717
1.1942037127
1.1962369815
1.1921411331
1.1965435325
1.1969560072
1.1951584268
1.1976106895
1.1970407415
1.1949660428
1.1927885365
1.1938750725
1.1957938223
1.1967164088
1.1917485292
1.1938825649
1.1979801313
1.1978115012
1.1952783895
1.1962672575
1.1975437094
1.1961191063
1.1970409597
1.1987720367
1.1922859929
1.1923276443
1.1954106677
1.1959127268
1.1918591327
1.1943331940
1.1993699648
1.1994985337
1.1950886705
1.1915975993
1.1931762479
1.1945012164
1.1924947072
1.1963963478
1.1946444000
1.1935804111
1.1935722704
1.1998613890
1.1922761815
1.1936397366
1.1921088350
1.1947780334
1.1923338505
1.1918171991
1.1998976315
1.1948174991
1.1930628255
1.1978926433
1.1992339536
1.1924900779
1.1924940715
1.1932818207
1.1932812841
1.1920869278
1.1932206730
1.1940433088
1.1991046563
1.1926043985
1.1934408183
1.1926769946
1.1933340361
1.1937133454
1.1961789888
1.1933835375
1.1927358056
1.1927160404
1.1937746837
1.1980233888
1.1919660545
1.1945977681
1.1996951617
1.1992526243
1.1948828705
1.1929181706
1.1942809122
1.1927355707
1.1960293747
1.1933828862
1.1934403502
1.1995986270
1.1924654044
1.1937991380
1.1923424144
1.1948719923
1.1924111670
1.1918043768
1.1999580138
1.1946858130
1.1933833653
1.1984436394
1.1988528562
1.1924009075
1.1925005325
1.1931631646
1.1923887444
1.1919091189
1.1930974248
1.1938047805
1.1991759089
1.1925327806
1.1929078406
1.1936626676
1.1926921058
1.1931697243
1.1967388487
1.1931404461
1.1930631864
1.1923551249
1.1975691595
1.1936778867
1.1922758125
1.1918171653
1.1949798295
1.1926771153
1.1975826458
1.1946537080
1.1931698507
1.1930953474
1.1950889479
1.1916975997
1.1929875161
1.1923545678
1.1977321614
1.1921462312
1.1958584962
1.1940185873
1.1923549151
1.1930165458
1.1958575377
1.1952223675
1.1957861412
1.1923275302
1.1963113230
1.1959807184
1.1948283520
1.1940877441
1.1977298721
1.1924963790
1.1920571861
1.1982581705
1.1962176396
1.1944630722
1.1940443068
1.1943317013
1.1924933336
1.1966989603
1.1961697443
1.1944591155
1.1943760441
1.1972958311
1.1935404760
1.1922170516
1.1959785367
1.1987582977
1.1947066291
1.1973620515
1.1986395902
1.1929577201
1.1930343264
1.1973602373
1.1977643153
1.1918594248
1.1937437767
1.1966669473
1.1923281391
1.1921086202
1.1972359890
1.1934531129
1.1924651671
1.1918045878
1.1946367175
1.1929083630
1.1971551182
1.1944586552
1.1966403961
1.1927159814
1.1931269008
1.1953981968
1.1920257218
1.1931959553
1.1924918319
1.1920523236
1.1950117292
1.1920866219
1.1928062439
1.1950466436
1.1962512263
1.1953640430
1.1920637255
1.1967423882
1.1983639538
1.1978460154
1.1922095660
1.1921559151
1.1979580692
1.1941315393
1.1954940440
1.1927686953
1.1962361165
1.1986419114
1.1946370061
1.1945056069
1.1933838534
1.1925167059
1.1984611770
1.1985022356
1.1926064820
1.1935590537
1.1977427534
1.1985477405
1.1919661638
1.1937856668
1.1970898082
1.1925426703
1.1923420970
1.1955115842
1.1919088693