<VTKFile type="UnstructuredGrid" version="0.1">
	<UnstructuredGrid>
		<Piece NumberOfPoints="1862" NumberOfCells="3498">
			<CellData>
				<DataArray type="Int32" Name="type" NumberOfComponents="1" Format="ascii">
0
0
0
0
0
0
0
0
0
0
0
0
0
0
0
0
1
0
0
1
0
0
0
0
0
0
0
0
0
0
0
0
0
1
0
0
0
0
0
0
0
0
0
0
0
0
0
0
0
0
1
0
0
0
0
0
0
0
0
0
0
1
0
0
0
0
0
0
0
0
0
0
0
0
0
0
0
0
0
0
0
0
0
0
0
0
0
0
0
0
0
0
0
0
0
0
0
0
0
0
0
0
0
0
0
0
0
0
0
0
0
0
0
0
0
0
0
0
0
0
0
0
0
1
0
0
0
0
0
0
0
0
0
0
0
0
0
0
0
0
0
0
0
0
0
0
0
0
0
0
0
1
0
1
1
0
0
0
0
0
0
0
0
0
0
0
0
0
1
0
1
0
0
0
0
1
0
0
0
0
0
0
0
0
1
1
0
0
0
0
0
1
0
0
0
0
0
0
0
0
1
0
0
0
0
0
0
0
0
0
0
0
0
0
0
0
0
0
0
0
0
0
0
0
0
0
0
0
0
0
0
0
0
1
0
0
0
0
0
0
0
0
0
0
0
0
0
0
0
0
0
0
0
0
0
0
0
0
0
0
0
0
0
0
0
0
0
0
0
0
0
0
0
0
0
0
0
0
0
0
0
1
0
0
0
0
0
0
0
0
0
0
0
0
0
0
0
0
0
0
0
0
0
0
0
0
0
0
0
0
0
0
0
0
0
0
0
0
0
0
0
0
0
0
0
0
0
0
0
0
0
0
1
0
0
0
0
0
0
0
0
0
0
0
0
0
0
0
0
0
0
0
0
0
0
0
0
0
0
0
0
0
0
0
0
0
0
0
0
0
0
0
0
0
0
0
0
0
0
0
0
0
0
0
0
0
0
0
0
0
1
0
0
0
0
0
0
0
0
0
0
0
0
0
0
0
0
0
0
0
0
0
0
0
0
0
0
0
0
0
0
0
0
0
0
0
0
0
0
0
0
0
0
0
0
0
0
0
0
0
0
0
0
0
0
0
0
0
0
0
0
0
0
0
0
0
0
0
0
0
0
0
0
0
0
0
0
0
0
0
0
0
0
0
0
0
0
0
0
0
0
0
0
0
0
0
0
0
0
0
0
0
0
0
0
0
0
0
0
0
0
0
0
0
0
0
0
0
0
0
0
0
0
0
0
0
0
0
0
0
0
0
0
1
0
0
0
0
0
0
0
0
0
0
0
0
0
0
0
0
0
0
0
1
0
0
0
0
0
0
0
0
0
0
0
0
0
0
0
0
0
0
0
0
0
0
0
0
0
0
0
0
0
0
0
0
0
0
0
0
0
0
0
0
0
0
0
0
0
0
0
0
0
0
0
0
0
1
0
0
0
0
0
0
0
0
0
0
0
0
0
0
0
0
0
0
0
0
0
0
0
1
0
0
0
0
0
0
0
0
0
0
0
0
0
0
0
0
0
0
0
1
0
0
0
1
0
0
0
0
0
0
0
0
0
0
0
0
0
0
0
0
0
0
0
0
0
0
0
0
0
1
0
0
0
0
0
0
0
1
0
0
0
0
0
0
0
0
0
0
0
0
0
0
0
0
0
0
0
0
0
0
0
0
0
0
1
0
0
0
0
0
0
0
1
0
0
0
0
0
0
1
0
0
0
0
0
0
0
0
0
0
0
0
0
0
0
0
0
0
0
0
0
0
0
0
0
0
0
0
0
0
0
0
0
0
0
0
0
0
1
0
0
0
0
0
1
0
0
0
0
0
0
0
1
0
0
0
0
0
0
0
0
0
0
0
0
0
1
0
0
0
0
0
0
0
0
0
0
0
0
0
0
0
0
0
0
0
0
0
0
0
0
0
0
0
0
0
0
0
0
0
0
0
0
0
0
0
0
0
0
0
0
0
0
0
0
0
0
0
0
0
1
0
0
0
0
0
0
0
0
0
0
0
0
0
0
0
0
0
0
0
1
0
0
0
0
0
0
0
0
0
1
0
0
0
0
0
0
0
0
0
0
0
0
0
0
0
0
0
0
0
0
0
0
0
0
0
0
0
0
0
1
0
1
0
0
0
0
0
0
0
0
0
0
0
0
0
0
0
0
0
0
0
0
0
0
0
0
0
0
0
1
0
0
0
1
0
0
0
0
0
0
0
0
0
0
0
0
0
0
0
0
0
0
0
0
0
0
0
0
0
0
0
0
1
0
0
0
0
0
0
0
0
0
0
0
0
0
0
0
0
0
0
0
0
0
0
0
0
0
1
0
0
0
0
0
0
0
0
0
0
0
0
0
0
0
0
0
0
0
0
0
0
0
1
0
0
0
0
0
0
1
0
0
0
0
0
0
0
0
0
0
0
1
0
0
0
0
0
0
0
0
0
0
0
0
0
0
0
0
0
0
0
0
1
0
0
0
0
0
0
0
0
0
0
0
1
0
0
0
0
0
0
0
0
0
0
0
0
0
0
0
0
0
0
0
0
0
1
0
0
0
0
0
0
0
0
0
1
1
0
1
0
1
0
0
0
0
0
0
0
0
0
0
0
1
0
0
0
0
0
1
1
0
0
0
0
0
0
1
0
0
0
0
0
1
1
1
0
0
0
0
0
0
0
0
0
0
0
0
1
1
0
0
1
0
0
0
0
0
1
0
0
0
1
0
1
0
0
0
0
0
0
0
1
0
0
0
0
0
0
0
1
0
0
1
0
0
0
0
0
0
0
0
0
0
0
0
0
0
0
1
0
0
0
0
0
0
0
0
0
0
0
0
0
0
0
0
0
0
0
0
0
0
0
0
0
0
0
0
0
0
0
0
0
0
0
0
1
0
0
0
0
0
0
1
0
0
0
1
0
0
0
0
0
0
0
0
0
0
0
1
0
0
0
0
0
0
0
0
0
0
0
0
0
0
0
0
0
0
0
0
0
0
0
0
0
0
0
0
0
0
0
0
0
0
0
0
0
0
0
0
1
1
0
0
0
0
0
0
0
0
0
0
0
0
0
1
0
0
0
0
0
0
0
0
0
0
0
0
0
0
0
0
0
0
0
0
0
0
0
0
0
0
0
0
0
0
0
0
0
0
0
0
0
0
0
0
0
0
0
0
0
0
0
0
0
0
0
0
0
0
0
0
0
0
0
0
0
0
0
0
0
0
0
0
0
0
0
0
1
1
0
0
0
0
0
0
0
0
1
0
0
0
0
0
0
0
0
0
0
0
0
0
0
0
0
0
0
0
0
0
0
0
1
0
0
0
0
0
0
0
0
0
0
0
0
0
0
0
0
1
0
0
0
0
0
0
0
0
0
0
0
0
0
0
0
0
0
0
0
0
0
0
0
0
0
0
0
0
0
0
0
0
0
0
0
0
0
0
0
0
0
0
0
0
0
0
0
0
0
0
0
0
0
0
0
0
0
0
0
0
0
0
0
0
0
0
0
0
0
0
0
0
0
0
0
0
0
0
0
0
0
0
0
0
0
0
0
0
0
0
1
1
0
0
0
0
0
1
0
0
0
0
0
0
0
0
0
0
0
0
1
0
0
0
0
0
0
0
0
0
0
0
0
0
0
0
0
0
0
0
0
0
0
0
0
0
0
0
0
0
0
0
0
0
0
0
0
0
0
0
0
0
0
0
0
0
0
0
0
0
0
0
0
0
1
0
1
0
0
0
0
0
0
0
0
0
0
0
0
0
0
0
0
0
0
1
0
0
0
0
0
0
0
0
0
0
0
0
0
0
0
0
0
0
0
0
0
0
0
0
0
0
0
0
0
0
0
0
0
0
0
0
0
0
0
0
0
0
0
0
0
0
0
0
0
0
0
0
0
0
0
0
0
0
0
0
0
0
0
0
0
0
0
0
0
0
1
0
0
0
0
0
0
0
0
0
0
1
0
0
0
0
0
0
0
0
0
0
0
0
0
0
0
0
0
0
0
0
0
0
0
0
0
0
0
0
0
0
0
0
0
0
0
0
0
1
0
0
0
0
0
0
0
0
0
0
0
0
0
0
0
0
0
0
0
0
0
0
0
0
0
0
0
0
0
0
0
0
0
0
0
0
0
0
0
0
0
0
0
0
0
0
0
0
0
0
0
0
0
0
0
0
0
0
0
0
0
0
0
0
0
0
0
0
0
0
0
0
0
0
0
0
0
0
0
0
0
1
0
0
0
0
0
0
0
0
0
0
0
0
0
0
0
0
0
0
0
0
0
0
0
0
0
0
0
0
0
0
0
0
0
0
0
0
0
0
0
0
0
0
0
0
0
0
0
0
0
0
0
0
0
0
0
0
0
0
0
0
0
0
0
0
0
0
0
0
0
0
0
0
0
0
0
0
0
0
0
0
0
0
0
0
0
0
0
0
0
0
0
0
0
0
0
0
0
0
0
0
0
0
0
0
0
0
0
0
0
0
0
0
0
0
0
0
0
0
0
0
0
0
0
1
0
0
0
0
0
0
0
0
0
0
0
0
0
0
0
0
0
0
0
0
0
0
0
0
0
0
0
0
0
0
0
0
0
0
0
0
0
0
0
0
0
0
0
0
0
0
0
0
0
0
0
0
0
0
0
0
0
0
0
0
0
0
0
0
0
0
0
0
0
0
0
0
0
0
0
0
0
0
0
0
0
1
0
0
0
0
0
0
0
1
0
0
0
0
0
0
0
0
0
0
0
0
0
0
0
0
0
0
0
0
0
0
0
0
0
0
0
0
0
0
0
0
0
0
0
0
0
1
0
0
0
0
0
0
0
0
0
0
0
0
0
0
0
0
0
0
0
0
0
1
0
0
0
0
0
0
0
0
0
0
0
0
1
1
0
0
0
0
0
0
0
0
0
0
0
0
0
0
0
1
1
0
1
0
0
0
0
0
0
0
0
0
1
0
0
0
0
0
0
1
0
0
0
0
0
0
0
0
0
0
1
0
0
0
0
1
0
1
0
0
0
0
0
0
0
1
0
0
0
1
0
0
0
1
0
1
1
0
0
1
1
0
0
0
1
0
0
0
1
0
0
0
0
0
0
0
0
0
1
0
0
0
0
0
0
1
0
0
0
0
0
0
0
0
0
0
0
0
0
0
0
0
0
0
0
0
0
0
0
0
0
0
0
1
0
0
1
0
0
0
0
0
0
0
0
0
0
0
0
0
0
0
0
0
0
1
0
0
1
0
0
0
0
0
0
0
0
0
0
0
1
0
0
1
0
0
0
0
0
0
0
0
0
0
0
1
1
0
0
0
0
0
0
0
0
0
0
0
0
1
0
0
0
0
0
0
0
0
0
0
0
0
0
0
0
0
0
1
0
0
0
0
0
0
0
0
0
0
0
0
0
0
0
0
0
1
0
0
0
0
0
0
0
0
0
0
0
0
0
0
0
0
0
0
0
0
0
0
0
0
0
0
0
0
0
0
0
0
0
0
0
0
0
0
0
0
1
0
0
0
0
0
0
0
0
0
0
0
0
0
0
0
0
0
0
0
0
0
0
0
0
0
0
0
0
0
0
0
0
0
0
0
0
0
0
0
0
0
0
0
0
0
1
0
0
0
0
0
0
0
0
0
0
0
0
0
0
0
0
0
0
0
0
0
0
0
0
0
0
0
0
0
0
0
0
0
0
0
0
0
0
0
0
0
0
0
0
0
0
0
1
0
0
0
0
0
0
0
0
0
0
1
0
0
0
0
0
0
0
0
0
0
0
0
0
0
0
1
0
0
1
0
0
0
0
0
0
0
0
0
0
0
0
0
0
0
0
0
0
0
0
0
0
0
1
0
0
0
0
0
0
0
0
0
0
0
0
0
0
0
0
0
0
0
0
0
0
0
0
0
0
0
0
0
0
0
0
0
0
0
1
0
0
0
0
0
0
0
0
0
0
0
0
0
0
0
0
0
0
0
0
0
0
0
0
0
0
0
0
0
0
0
0
0
0
0
0
0
0
0
0
0
0
0
0
0
0
0
0
0
0
0
0
0
0
0
0
0
0
0
0
0
0
0
0
0
0
0
0
0
0
0
0
0
0
0
0
1
0
0
0
0
0
0
0
0
0
0
0
0
0
0
0
0
0
0
0
0
0
0
0
0
0
0
0
0
0
0
0
0
0
0
0
0
0
0
0
1
0
0
0
0
0
0
0
0
0
0
0
0
1
1
0
0
0
0
0
0
0
0
0
0
0
0
0
0
0
0
0
0
0
0
0
0
0
0
0
0
0
0
0
0
0
0
0
0
0
0
0
0
0
0
0
0
0
0
0
0
0
0
0
0
0
0
0
0
0
0
0
0
0
0
0
0
0
0
0
0
0
0
0
0
0
0
0
0
0
0
0
0
0
0
0
0
0
0
0
0
0
0
0
0
0
0
0
0
0
0
0
0
0
0
0
1
0
1
0
0
0
0
0
0
0
1
1
1
1
0
0
0
0
0
0
0
0
0
0
0
0
0
0
0
0
0
0
0
0
0
0
0
0
0
0
0
0
1
1
0
0
0
0
0
0
0
0
0
0
0
0
0
0
0
0
0
0
1
0
0
0
0
0
0
0
1
1
0
1
1
0
0
1
0
0
0
0
0
0
0
1
0
1
0
0
0
0
0
0
0
0
0
0
0
0
0
0
0
0
0
0
0
0
0
0
0
0
0
0
0
1
1
0
0
0
1
1
0
0
0
0
1
0
0
1
0
1
0
0
0
0
0
1
0
0
0
1
0
0
0
0
0
0
0
0
0
0
0
0
0
0
0
0
0
0
0
0
0
0
0
0
0
0
0
1
0
0
0
0
0
0
1
0
0
0
0
0
0
0
0
0
0
0
0
0
0
0
0
0
0
0
0
0
0
0
0
0
0
0
0
0
1
0
1
0
0
0
0
0
0
0
1
0
0
0
0
0
0
0
0
0
0
0
1
0
0
0
0
0
0
0
0
0
1
0
0
0
0
0
0
0
1
0
0
0
0
0
0
0
1
0
0
0
0
0
0
0
0
0
0
0
0
0
0
0
0
0
0
0
1
0
1
0
0
0
0
0
1
0
0
0
0
0
0
0
0
0
0
0
0
0
0
0
0
0
0
0
0
0
0
0
0
0
1
0
1
0
0
0
0
0
0
0
0
0
1
0
0
0
0
0
1
0
0
0
0
0
0
0
0
0
0
0
0
0
0
0
1
0
0
0
0
0
0
0
0
1
0
0
0
0
0
0
0
0
0
0
0
0
0
0
0
0
0
0
0
0
0
0
0
0
0
0
0
0
0
0
1
0
0
0
0
0
0
0
0
0
0
0
0
0
0
0
0
1
0
0
0
0
0
0
0
0
1
0
0
0
0
0
0
0
0
0
1
0
0
0
0
0
1
0
0
0
0
0
0
0
0
0
0
0
0
0
0
0
0
0
0
0
1
0
0
0
0
0
0
1
0
0
0
0
0
0
0
0
1
0
0
0
0
0
0
0
0
0
0
0
0
0
0
1
0
0
1
0
0
0
1
0
0
0
0
0
0
0
0
0
0
0
0
0
0
0
0
1
0
0
0
0
0
0
0
0
0
0
1
0
1
0
0
0
0
0
0
1
0
0
0
0
0
0
0
0
0
0
0
0
0
0
0
0
0
0
0
0
0
0
0
0
0
0
0
1
1
0
0
0
0
0
0
1
0
0
0
0
0
0
0
0
0
0
0
0
0
1
0
0
0
0
0
0
0
1
0
0
0
0
0
0
0
0
0
0
0
0
0
0
0
0
0
0
0
0
0
0
0
0
0
0
0
1
0
0
0
0
0
0
0
0
0
0
1
0
0
1
0
0
0
0
0
0
0
0
0
0
0
0
0
0
0
0
0
0
0
0
0
0
0
0
0
0
0
0
0
1
0
0
0
0
0
0
0
1
0
0
0
0
0
0
0
1
0
0
0
0
1
0
0
0
0
0
0
0
0
0
0
0
1
0
1
0
0
0
1
0
				</DataArray>
				<DataArray type="Float64" Name="h" NumberOfComponents="1" Format="ascii">
1.2122812480
1.2122874924
1.2136140057
1.2134217863
1.2131604860
1.2135201893
1.2132003698
1.2129489064
1.2133241394
1.2130489429
1.2134450343
1.2136769179
1.2117700554
1.2133593464
1.2126338456
1.2113421079
1.2137256219
1.2125080299
1.2119777488
1.2134617306
1.2143061651
1.2109498539
1.2114040522
1.2135040817
1.2136749771
1.2117520248
1.2095910617
1.2100968472
1.2120513265
1.2132916278
1.2134495741
1.2118418704
1.2105356009
1.2141957662
1.2144906551
1.2127888141
1.2147671391
1.2101790380
1.2092543479
1.2138842873
1.2124829666
1.2115778686
1.2101176339
1.2108990420
1.2132307285
1.2103877174
1.2106830993
1.2148480428
1.2161964587
1.2144677411
1.2146145990
1.2117658344
1.2114753079
1.2126730507
1.2127267888
1.2086954628
1.2112617886
1.2153619065
1.2146988015
1.2135378193
1.2165435411
1.2166352391
1.2161041286
1.2123588075
1.2100655653
1.2100143388
1.2127718804
1.2144549117
1.2161488800
1.2163318826
1.2150648344
1.2134140865
1.2086819244
1.2131943579
1.2140453027
1.2064253374
1.2150101773
1.2159989010
1.2151197002
1.2080523141
1.2174308062
1.2104817763
1.2195497884
1.2127992557
1.2070595808
1.2077581872
1.2178218751
1.2109682036
1.2153468006
1.2178271724
1.2173496099
1.2073733985
1.2164027064
1.2160282944
1.2091806359
1.2086697452
1.2094303588
1.2078418055
1.2086195910
1.2175501594
1.2188239926
1.2178236169
1.2107073286
1.2157462507
1.2131789926
1.2111249995
1.2076147588
1.2169928117
1.2154637097
1.2101294827
1.2152449905
1.2170619555
1.2168136003
1.2168067826
1.2122185097
1.2200501801
1.2116863457
1.2134082826
1.2185628092
1.2137581837
1.2131971511
1.2104935603
1.2060597101
1.2135416869
1.2160715718
1.2179244867
1.2131264126
1.2138514432
1.2198894352
1.2201537977
1.2189627995
1.2086965934
1.2146107261
1.2205964931
1.2133458911
1.2184145375
1.2121043881
1.2209205897
1.2186930598
1.2100853666
1.2142371582
1.2133733597
1.2195771808
1.2091023010
1.2071487263
1.2184660095
1.2110381602
1.2223783323
1.2135619136
1.2233499531
1.2122837383
1.2210961860
1.2215332200
1.2233831887
1.2182454601
1.2213208575
1.2220849065
1.2134654458
1.2230727603
1.2145871354
1.2092092388
1.2221617323
1.2111280390
1.2140132175
1.2137782148
1.2210900444
1.2080591529
1.2103044109
1.2137470893
1.2218955445
1.2217516876
1.2143761047
1.2228560350
1.2136347275
1.2071092853
1.2231060008
1.2081400341
1.2225220842
1.2229556500
1.2141204019
1.2208154565
1.2061526610
1.2146713687
1.2054091487
1.2143885056
1.2145957845
1.2070883010
1.2232987495
1.2140047362
1.2150393624
1.2052675739
1.2227680091
1.2149946536
1.2061853398
1.2230879585
1.2219388084
1.2138236592
1.2045079890
1.2053266427
1.2243809546
1.2150377364
1.2058170877
1.2147977028
1.2237334216
1.2039355551
1.2149346776
1.2099181961
1.2121305571
1.2046714906
1.2075276891
1.2042937084
1.2148752412
1.2143282502
1.2156185471
1.2110591751
1.2034269595
1.2087162799
1.2141367351
1.2052925413
1.2150743327
1.2042166920
1.2159773665
1.2063712690
1.2122075013
1.2051742151
1.2236203638
1.2196022195
1.2086901034
1.2035174624
1.2178396366
1.2239240917
1.2140782001
1.2069429859
1.2243491980
1.2225645455
1.2104221234
1.2033649514
1.2084459945
1.2156142164
1.2057423127
1.2022810930
1.2110575950
1.2145036878
1.2064665440
1.2113292584
1.2089416282
1.2147527333
1.2042848995
1.2098005698
1.2134399993
1.2070748079
1.2033179155
1.2137152175
1.2025936304
1.2014160107
1.2153078710
1.2076774746
1.2101814928
1.2156222705
1.2129431442
1.2044811204
1.2032004084
1.2068352081
1.2106708637
1.2056223077
1.2217397834
1.2228626030
1.2022423462
1.2241015935
1.2146336771
1.2184344612
1.2053285436
1.2167197051
1.2091257585
1.2110506832
1.2015177724
1.2049905324
1.2087073488
1.2126511690
1.2038793056
1.2185301885
1.2238062636
1.2230386146
1.2216320484
1.2165800770
1.2148410569
1.2073917105
1.2066756115
1.2141312010
1.2137339719
1.2073135756
1.2013510708
1.2096640391
1.2101315681
1.2037404476
1.2001829424
1.2045923772
1.2081943705
1.2124303945
1.2153107695
1.2146358288
1.2087424828
1.2022893462
1.1993372897
1.2005728794
1.2051745193
1.2012122101
1.2059143302
1.2128379521
1.2011569743
1.2073539207
1.2048617101
1.2232889552
1.2001988928
1.2169809528
1.2113705956
1.2024094518
1.2153588848
1.2217078734
1.2033736472
1.2088677858
1.2036179976
1.2130242323
1.2206473443
1.2029627886
1.2054614646
1.2068285644
1.2220704723
1.2093331789
1.2133861149
1.2172551178
1.2203603077
1.2227857762
1.1994710358
1.2109519501
1.2018520325
1.2150488188
1.2054179977
1.2163277450
1.2015566497
1.1980550187
1.2025439398
1.2131745491
1.1992749766
1.2079066785
1.2046259135
1.2085498675
1.2125965049
1.2115905328
1.1956052143
1.1972647479
1.2032784136
1.2069766289
1.2116524336
1.2124697325
1.2030403728
1.1954801291
1.1990353937
1.2039271102
1.2046573037
1.2075518888
1.2140766040
1.2146377145
1.2002006853
1.1985169534
1.2062666147
1.1927046619
1.1934773745
1.1991873110
1.2135671337
1.1991214207
1.2073182923
1.2110698759
1.2202070841
1.2095530158
1.2068929324
1.2192423447
1.2034085431
1.2152518459
1.1990966853
1.1981533234
1.2137246121
1.2220457764
1.2002107724
1.2111664977
1.2012941714
1.2015607308
1.2054030511
1.2027999971
1.1927800013
1.2213733056
1.1974419936
1.2074503334
1.1901171910
1.2187743476
1.2090283137
1.2001396288
1.1960843280
1.1948457470
1.1907571726
1.2008887866
1.2157010598
1.1912787739
1.2116622501
1.1903741526
1.2207441297
1.2132560377
1.1997934074
1.2034371221
1.1919518351
1.2048075208
1.1940619802
1.2076147711
1.1939057589
1.2032840607
1.2133893154
1.2118403488
1.2003706628
1.2054117078
1.1974942548
1.1913422673
1.1915276370
1.2066131397
1.2096194158
1.2126600145
1.2033113325
1.2171846760
1.2118352657
1.2052715836
1.1972036888
1.1973128946
1.2115922063
1.2011205446
1.2092511827
1.1972215279
1.2011801354
1.2027201909
1.2097636764
1.2155859684
1.1902971146
1.1924721401
1.1954928848
1.2049155356
1.2002640512
1.1908958622
1.2017586385
1.1993060382
1.1925385097
1.2054466888
1.2030230627
1.1990738285
1.2185740567
1.2135679450
1.1958355429
1.1980807317
1.1915262240
1.2090444615
1.2068712784
1.1954475820
1.2075390984
1.2100867131
1.1964935376
1.2009639787
1.2204523758
1.1991395081
1.2075598766
1.2012531541
1.1994976114
1.1896798460
1.2043430497
1.2175419570
1.1981326332
1.2118407636
1.1960009931
1.1961753599
1.2033448988
1.2052669636
1.1908127329
1.2100538990
1.2015404065
1.1993293901
1.1945723339
1.2025949996
1.2190995279
1.1987370712
1.2022667440
1.2138806914
1.1975384552
1.2054208344
1.1932460174
1.1905807233
1.1977639594
1.2041224032
1.2080916539
1.2001396832
1.1937479159
1.1994704935
1.2016564045
1.2097170659
1.1955340155
1.1943272032
1.1989075805
1.1914704922
1.1948464804
1.1907572318
1.1969749088
1.2013637043
1.2120477561
1.1940807485
1.1909485858
1.1975384813
1.1952062050
1.1940866665
1.1981334367
1.1895888523
1.2100531958
1.1971969751
1.1912809111
1.2090314691
1.1969111275
1.1952065198
1.1938615509
1.1913475584
1.2153393767
1.1998415713
1.2008622004
1.1899642721
1.1939238993
1.1895049516
1.1940174315
1.2010264253
1.2009646677
1.1971909171
1.2033288173
1.2043430356
1.1886981149
1.2080907009
1.1994711970
1.2120476459
1.1895043055
1.1945718001
1.1888324249
1.1902199481
1.2109999452
1.1893771023
1.1982923489
1.1951711974
1.1960016717
1.1890584657
1.1906471145
1.2090574329
1.1897773039
1.2015328582
1.1887151593
1.2070948187
1.1888954720
1.1934352423
1.1910233145
1.2049783600
1.2086161735
1.1947764262
1.1915087584
1.2068620293
1.2025954921
1.1886558121
1.2097596863
1.1969756500
1.2012476569
1.1918995886
1.2185608381
1.1957354783
1.1915523348
1.1972198314
1.1927283690
1.1974883683
1.2065011530
1.1943354852
1.1898111439
1.1940833431
1.1928775858
1.1958503518
1.2054438459
1.1943240753
1.1836776892
1.1901901036
1.2005581249
1.2155761596
1.2076118819
1.1992998177
1.1840981809
1.2171732399
1.1880137782
1.1922774382
1.1883107422
1.1852838067
1.1958307012
1.1922770461
1.2086884239
1.2041227708
1.1903029841
1.1895379929
1.1936612051
1.2038268303
1.1972507811
1.2033071967
1.1868996486
1.1875652647
1.1997552204
1.2118340213
1.1742468332
1.1873678190
1.2024276306
1.1981806890
1.1821526671
1.1898105544
1.1988258322
1.1914790106
1.2033293171
1.1957361254
1.1940175970
1.1998421806
1.2103746579
1.1892230445
1.2044123648
1.2090312883
1.1946456683
1.1785439870
1.1966268580
1.2070945033
1.1843370573
1.1875650687
1.1812252047
1.1853864267
1.1934344174
1.1969118980
1.1947769790
1.2015335852
1.1943605814
1.1977707218
1.1934462453
1.1907441750
1.2110001137
1.1869574645
1.1877707818
1.1922641419
1.2053344007
1.1966138075
1.1887148663
1.1871571437
1.2012942694
1.1781117925
1.1948794200
1.2049534174
1.1989864748
1.1758994991
1.1929643874
1.1917213671
1.1982927255
1.1933088324
1.1960864500
1.2074049937
1.2007278393
1.1923873493
1.1954794572
1.1988860334
1.1923578198
1.1740806071
1.1938357344
1.2027150370
1.1974518714
1.2008915598
1.2009356262
1.1886978604
1.1862455642
1.1881243296
1.1830147919
1.1938901721
1.1825811699
1.1840802133
1.1978223718
1.1969892619
1.1893973968
1.1884507054
1.1944973201
1.1873671563
1.1858934868
1.1804609145
1.1951863449
1.1977662904
1.1958555831
1.1871085006
1.1866730827
1.1782590961
1.1810595005
1.1830853438
1.1953271417
1.1956838029
1.1946293455
1.1949699152
1.1752955180
1.1960268716
1.1962109835
1.1777873096
1.1977758252
1.1971928165
1.1742466940
1.1964176060
1.1897769041
1.1974896216
1.1886881978
1.1887077217
1.1966267663
1.1821516543
1.1968266868
1.1991917984
1.1915086278
1.1999568575
1.1874105373
1.1806736388
1.1997395277
1.2019272270
1.1977600304
1.2123727741
1.2127576017
1.2127627363
1.2123774295
1.2136285378
1.2136701389
1.2134387041
1.2131060590
1.2129271545
1.2135134734
1.2131662545
1.2129341387
1.2133298998
1.2126280651
1.2131942889
1.2130706012
1.2131125287
1.2136352679
1.2125795284
1.2125024814
1.2134290450
1.2136204594
1.2119729453
1.2132856777
1.2117551962
1.2139458053
1.2129544611
1.2117475500
1.2136675158
1.2130547892
1.2117856945
1.2117761233
1.2139618503
1.2105856630
1.2112805756
1.2130767689
1.2134432367
1.2125851602
1.2141881399
1.2105301103
1.2118379893
1.2096369309
1.2138783659
1.2083949763
1.2137331416
1.2113474686
1.2101148597
1.2092480772
1.2139529694
1.2117609312
1.2124773528
1.2133657615
1.2134690987
1.2139685276
1.2114072372
1.2143457904
1.2109543080
1.2142398397
1.2117908699
1.2143134492
1.2112856551
1.2109436332
1.2103876485
1.2148438268
1.2105911163
1.2132265658
1.2146072133
1.2106800859
1.2101003651
1.2135094983
1.2120573815
1.2112572435
1.2087646410
1.2095958703
1.2142402758
1.2127017188
1.2083994025
1.2123810507
1.2152474923
1.2096423072
1.2114703977
1.2143487530
1.2152470246
1.2153412907
1.2109466817
1.2142458835
1.2137766552
1.2103938875
1.2127934142
1.2100621670
1.2101809933
1.2136160429
1.2144952081
1.2161068989
1.2144544158
1.2112438008
1.2147740790
1.2123553824
1.2123830026
1.2143939756
1.2143104953
1.2109026128
1.2131949518
1.2128338447
1.2134107598
1.2086776127
1.2157890256
1.2078728740
1.2094936679
1.2142454563
1.2170369542
1.2152536111
1.2115832511
1.2150077497
1.2150629364
1.2139544083
1.2140454483
1.2087691020
1.2093377193
1.2161459417
1.2149966486
1.2127069999
1.2163274739
1.2137811191
1.2136182683
1.2091792514
1.2112476764
1.2137353773
1.2134247316
1.2135380722
1.2161925402
1.2117717438
1.2153401838
1.2103926633
1.2104807176
1.2127958936
1.2116250953
1.2152459065
1.2144679960
1.2165461697
1.2166391575
1.2093397918
1.2169472304
1.2139538910
1.2146998689
1.2136964806
1.2128323970
1.2062748257
1.2078517350
1.2143957179
1.2150031275
1.2126905548
1.2127296396
1.2156647926
1.2157922636
1.2170405620
1.2086996364
1.2113574600
1.2146703310
1.2078786332
1.2126696055
1.2143114425
1.2135366965
1.2073655587
1.2153652197
1.2094967665
1.2164015007
1.2137344352
1.2157409982
1.2086129256
1.2116241227
1.2070664307
1.2134255228
1.2178207970
1.2120255048
1.2168115855
1.2121522797
1.2100195507
1.2188331204
1.2127763563
1.2154167390
1.2078356959
1.2173991957
1.2086630230
1.2124264112
1.2135429851
1.2175492233
1.2111167110
1.2091862260
1.2204838387
1.2113553302
1.2154634642
1.2170680051
1.2169495433
1.2146708424
1.2168127617
1.2126903376
1.2064318248
1.2142102633
1.2136965280
1.2160003171
1.2078556283
1.2178046161
1.2062803734
1.2152445314
1.2101273197
1.2156665884
1.2168124524
1.2204747749
1.2118436746
1.2174024172
1.2077663364
1.2104890359
1.2146257290
1.2154222959
1.2129963033
1.2124245624
1.2121541399
1.2070656712
1.2080599576
1.2178235611
1.2195385388
1.2174328318
1.2116875010
1.2151236218
1.2120346892
1.2131917881
1.2109747571
1.2070714648
1.2178049128
1.2086900517
1.2134302904
1.2125585285
1.2179302000
1.2159763585
1.2175202771
1.2153462532
1.2091858302
1.2160265358
1.2193635066
1.2178187756
1.2173490781
1.2177718228
1.2159869498
1.2160713812
1.2131276417
1.2142169483
1.2201569753
1.2107098456
1.2195732246
1.2124465433
1.2118414423
1.2130010446
1.2146238795
1.2169397508
1.2133404309
1.2184163443
1.2146135720
1.2131838913
1.2094380829
1.2071402989
1.2116637715
1.2133682747
1.2152899417
1.2125626348
1.2193593273
1.2168051898
1.2169868563
1.2119781767
1.2159917402
1.2175192806
1.2122186494
1.2135570352
1.2134375850
1.2195784927
1.2135939948
1.2200477576
1.2159760698
1.2184661260
1.2177678811
1.2076226419
1.2136001115
1.2057430740
1.2107944833
1.2214302984
1.2195675989
1.2169373286
1.2129505628
1.2205271176
1.2186969017
1.2183593441
1.2137555648
1.2124598601
1.2210969571
1.2134136128
1.2188444614
1.2185597776
1.2133857948
1.2122818160
1.2215350974
1.2182431079
1.2119823599
1.2135985022
1.2103006705
1.2137738691
1.2152891360
1.2226572645
1.2136052361
1.2139372783
1.2229596306
1.2105651789
1.2116758809
1.2135464040
1.2198890308
1.2092055541
1.2135187915
1.2060651042
1.2189619384
1.2133127806
1.2111246192
1.2193954494
1.2221660837
1.2138559991
1.2230760411
1.2183606568
1.2121085354
1.2205962457
1.2218314590
1.2091365054
1.2186893229
1.2208278992
1.2209190091
1.2228585230
1.2133525279
1.2131344317
1.2186949522
1.2133915606
1.2108095155
1.2129521482
1.2214286404
1.2057482987
1.2188451831
1.2218991889
1.2196457547
1.2205263861
1.2217538054
1.2136314295
1.2233460969
1.2146675935
1.2087927821
1.2135236360
1.2139415143
1.2203088369
1.2224687980
1.2231085764
1.2091062013
1.2223731925
1.2110419802
1.2141171746
1.2229542878
1.2133183987
1.2105763058
1.2145971862
1.2142413224
1.2208200113
1.2193957158
1.2081367826
1.2191574789
1.2100896066
1.2226538496
1.2143763424
1.2140006174
1.2213174895
1.2220821825
1.2131360841
1.2075288592
1.2218286593
1.2133837210
1.2133587377
1.2091487040
1.2143839323
1.2208254064
1.2233814466
1.2134690215
1.2196466041
1.2070833520
1.2070210839
1.2230899845
1.2080630260
1.2143802952
1.2203018211
1.2219469455
1.2146004809
1.2231058371
1.2191588861
1.2217830757
1.2145575655
1.2224658846
1.2088026925
1.2141414179
1.2227705567
1.2201604484
1.2140165532
1.2210842963
1.2061791064
1.2231308660
1.2145911168
1.2058123339
1.2237561153
1.2143804589
1.2147934639
1.2071126385
1.2237366631
1.2075379372
1.2137513378
1.2150333502
1.2133890434
1.2053203242
1.2240304487
1.2229533097
1.2140285599
1.2145617460
1.2141456361
1.2148709670
1.2231248261
1.2217763674
1.2145247849
1.2211338711
1.2061570384
1.2201607694
1.2231042496
1.2070289176
1.2153682413
1.2152170852
1.2225132252
1.2143259146
1.2046668258
1.2052730287
1.2239292014
1.2237538301
1.2150437233
1.2240275432
1.2237012883
1.2243246224
1.2054132737
1.2145999910
1.2232958396
1.2042150907
1.2147503476
1.2089395687
1.2133739116
1.2113288940
1.2045130444
1.2152215313
1.2027531535
1.2150611901
1.2064638634
1.2131769039
1.2140310174
1.2033611442
1.2149987833
1.2154738908
1.2211232190
1.2138258260
1.2155856248
1.2101801292
1.2125389859
1.2025918318
1.2076751081
1.2137140533
1.2042808429
1.2153727016
1.2156099618
1.2145277562
1.2236012825
1.2019851613
1.2039382185
1.2236968639
1.2148355837
1.2053252344
1.2243209009
1.2110323224
1.2038799381
1.2230487544
1.2185413861
1.2211989876
1.2073807644
1.2022459951
1.2167239436
1.2243757310
1.2129288501
1.2056179687
1.2241095825
1.2202333543
1.2217523833
1.2091090350
1.2042985978
1.2073127615
1.2122702090
1.2150779383
1.2045904675
1.2013492187
1.2131777825
1.2027541554
1.2133753425
1.2150483000
1.2007321039
1.2101324600
1.2141298869
1.2150650954
1.2075306086
1.2121313335
1.2099206672
1.2149374754
1.2052969985
1.2087424827
1.2128380197
1.2154781999
1.2059129511
1.2022865551
1.2141384784
1.2034306826
1.2005728622
1.2114875489
1.2154325514
1.2087190780
1.2125392843
1.2110610527
1.2155894973
1.2140857437
1.2033710728
1.1999555998
1.2018577688
1.2054569798
1.2093161555
1.2069518586
1.2202196814
1.2225551218
1.2220836684
1.2035166616
1.2243429541
1.2201376126
1.2133757402
1.2172627491
1.2063748092
1.2235942196
1.2178303421
1.2104383508
1.2122221611
1.2002050417
1.2036201139
1.2073418966
1.2113540780
1.2051775748
1.2195894505
1.2211869074
1.2233002396
1.2019841441
1.2236132381
1.2206618920
1.2153577869
1.2190443976
1.2159755958
1.2087036776
1.2054177183
1.2110674536
1.2145054646
1.2150515454
1.2131741871
1.2084468891
1.2022843391
1.1986726787
1.2085511456
1.2007311546
1.2110569518
1.2025427810
1.1992738495
1.2057440625
1.2122697638
1.2069770400
1.2116533004
1.2154357247
1.2149430241
1.2098007478
1.2033212706
1.1985169488
1.2101097570
1.2014174615
1.2114864955
1.2039263846
1.2001990135
1.2070761355
1.2134404737
1.1998006287
1.2087232098
1.2034393045
1.2237968291
1.2015118131
1.2157055282
1.2126645859
1.2012925931
1.2165750963
1.2190312972
1.2187689509
1.2207583399
1.1979145065
1.2044836285
1.2074405549
1.2049933037
1.2116530334
1.2216191036
1.2015669924
1.2068451899
1.2053989714
1.2228524151
1.1999527870
1.2175627536
1.2106884437
1.2146383105
1.2184225466
1.2192557910
1.2220595519
1.1981590484
1.2095410825
1.2031974750
1.2137217553
1.2201232135
1.2133975693
1.1973179212
1.1966490277
1.2054172335
1.2066755997
1.2110661081
1.2150172755
1.2107028323
1.2003702145
1.1949817923
1.1972030005
1.2037411606
1.2025545181
1.2096255778
1.2140366637
1.2137347919
1.2001849257
1.1986716972
1.2066138606
1.2032838672
1.2096625979
1.1940651126
1.1921662036
1.2011860043
1.2118353060
1.1985165803
1.2067504213
1.2095080175
1.2130223348
1.1968283583
1.1964934311
1.2047625698
1.2081937189
1.2124298655
1.2164256584
1.2110572825
1.2017583401
1.1966689985
1.1980799371
1.2051748430
1.2031973820
1.2090428501
1.2153501114
1.2149453993
1.2012143826
1.1993380897
1.2083439126
1.2049156729
1.2101080709
1.1937176017
1.1925280949
1.2005797104
1.2140712320
1.2004911353
1.2087799409
1.2100876034
1.1925829937
1.2191126407
1.1959327470
1.2109652408
1.1893458710
1.2171072778
1.2054192730
1.2203459662
1.2015402151
1.1996914699
1.1960099568
1.2138849675
1.1932452468
1.1898897612
1.1977701518
1.2175524683
1.1994634505
1.1912444044
1.2150480889
1.1905256569
1.2227736316
1.1991388525
1.2097135829
1.2024109408
1.2029588754
1.2068381417
1.1909257449
1.2013692154
1.1914703345
1.2204667851
1.1961797098
1.2088817765
1.1895386626
1.2175530831
1.2075559051
1.2187558392
1.2041497550
1.2021858870
1.1943987005
1.2158019629
1.1932466840
1.1899309189
1.1995043264
1.2169726181
1.1979121156
1.1903033304
1.2130317850
1.1896802537
1.2216949055
1.2118405862
1.2011495758
1.2048642309
1.1908130594
1.2033472188
1.1951815619
1.2021701852
1.2091090741
1.2151785698
1.1912826312
1.1949778365
1.1938644353
1.1948813393
1.2046256205
1.2147734325
1.1983799375
1.2132741128
1.2147827735
1.1899786282
1.2015566293
1.2069106101
1.1988219051
1.1921642010
1.1986340047
1.1924305449
1.1920226380
1.2079053394
1.2110877755
1.2140253614
1.2047940867
1.2049867538
1.2069155977
1.2010335404
1.2184001799
1.2125966720
1.1955009848
1.2067419393
1.1980563119
1.1927022818
1.1913438293
1.2090681260
1.2086256659
1.1986278331
1.1971959937
1.2102080030
1.2025472356
1.2106929666
1.2058515741
1.2095066599
1.1966485616
1.1985104877
1.2026295533
1.2126703760
1.1956009831
1.2040474959
1.2112357144
1.2052794082
1.2169025327
1.1909058932
1.1934747583
1.1933569619
1.1965684542
1.2062659971
1.2150056670
1.1990120704
1.2137947882
1.1903680114
1.2030401278
1.2075448181
1.2007023890
1.1910485051
1.1910495696
1.1933562025
1.2083424371
1.2115812103
1.2124611141
1.2069447229
1.2044300693
1.2003979390
1.2196313703
1.2140727741
1.1970831239
1.1972264485
1.2046506571
1.1990366032
1.1924286872
1.2103857176
1.2082840351
1.1991812337
1.1965883246
1.2115903865
1.2004853412
1.2087732923
1.2061894918
1.2110689763
1.1972655862
1.1966646526
1.2032720614
1.2023282470
1.2213597679
1.1981864780
1.2038357402
1.2157936427
1.2002113534
1.1993290926
1.2090358611
1.1932477566
1.1915539421
1.2027020387
1.2008814688
1.1903737522
1.2041320339
1.2075532843
1.1996908565
1.2057897218
1.2187613994
1.1916223350
1.1992533267
1.2013019528
1.2132560165
1.1958163177
1.1936903000
1.2006073773
1.1925832105
1.1960847193
1.1908182054
1.1908181283
1.1968582469
1.1974358122
1.2048088275
1.2065504518
1.1919516449
1.1895600505
1.2110472573
1.2034084856
1.1943387111
1.1904212801
1.1975696212
1.1942125671
1.1952725073
1.1974781238
1.1955970998
1.2040342070
1.2201931982
1.1997617955
1.2034929048
1.2152461765
1.1992849061
1.2068989053
1.1943993202
1.1910311303
1.1990888230
1.1895601690
1.2053443641
1.2093058417
1.2021856636
1.2061819934
1.2170972084
1.1922776441
1.2007201358
1.2027696832
1.2111715966
1.1975693272
1.1951046695
1.2000588614
1.1927798394
1.1960103477
1.1899309006
1.1935273398
1.1979529465
1.1959312150
1.2027960293
1.2065243948
1.1909254715
1.2127751490
1.2041489081
1.1975431702
1.1947361538
1.1913206030
1.2012413140
1.1958159480
1.1959714973
1.1949618444
1.1888752182
1.2075524357
1.1992538907
1.1899777404
1.2110468514
1.1983735932
1.1902960112
1.1947350977
1.1881274564
1.1920270634
1.1883863266
1.2077735163
1.1882717415
1.2100287867
1.1959255350
1.1948822854
1.1952575975
1.1959725161
1.1891311253
1.1948787800
1.2005734894
1.1920203693
1.1907395588
1.2110946412
1.2164138601
1.1895895377
1.1937149998
1.2100190495
1.1897618609
1.1985312277
1.2021617704
1.2090378405
1.1889955869
1.1927191118
1.1951853665
1.2051913481
1.1948771261
1.1991154174
1.1899832641
1.1885387578
1.2092600536
1.1930039364
1.1877824416
1.2163162002
1.2045015718
1.1925257987
1.2024113386
1.2077008645
1.1933521646
1.1921540024
1.2024036670
1.2063946979
1.2023286860
1.1881806589
1.1984346698
1.2017767575
1.2057894184
1.2073096486
1.1883244025
1.2093048582
1.2007205364
1.1892593549
1.2127756736
1.1965637991
1.1899824631
1.1939271444
1.1952727395
1.1883149000
1.1924696633
1.1886696270
1.2100130430
1.1884508258
1.1971413824
1.1922024780
1.1968593936
1.1883601758
1.1939087680
1.1954433374
1.1908944167
1.1887091068
1.2140651708
1.2008694390
1.2101973617
1.1885679927
1.2000776326
1.2002571225
1.1885580317
1.1888516858
1.2056369885
1.1933535937
1.2077111693
1.1892598282
1.1888258745
1.1928226441
1.1886884045
1.2040393848
1.2075292439
1.1940348317
1.1888541946
1.2030147865
1.2058419208
1.2040344658
1.1883993519
1.1990673130
1.2036325331
1.2061813862
1.2112333487
1.1979538442