<VTKFile type="UnstructuredGrid" version="0.1">
	<UnstructuredGrid>
		<Piece NumberOfPoints="1862" NumberOfCells="3498">
			<CellData>
				<DataArray type="Int32" Name="type" NumberOfComponents="1" Format="ascii">
0
0
0
0
0
0
0
0
0
0
0
0
0
0
0
0
1
0
0
1
0
0
0
0
0
0
0
0
0
0
0
0
0
1
0
0
0
0
0
0
0
0
0
0
0
0
0
0
0
0
1
0
0
0
0
0
0
0
0
0
0
1
0
0
0
0
0
0
0
0
0
0
0
0
0
0
0
0
0
0
0
0
0
0
0
0
0
0
0
0
0
0
0
0
0
0
0
0
0
0
0
0
0
0
0
0
0
0
0
0
0
0
0
0
0
0
0
0
0
0
0
0
0
1
0
0
0
0
0
0
0
0
0
0
0
0
0
0
0
0
0
0
0
0
0
0
0
0
0
0
0
1
0
1
1
0
0
0
0
0
0
0
0
0
0
0
0
0
1
0
1
0
0
0
0
1
0
0
0
0
0
0
0
0
1
1
0
0
0
0
0
1
0
0
0
0
0
0
0
0
1
0
0
0
0
0
0
0
0
0
0
0
0
0
0
0
0
0
0
0
0
0
0
0
0
0
0
0
0
0
0
0
0
1
0
0
0
0
0
0
0
0
0
0
0
0
0
0
0
0
0
0
0
0
0
0
0
0
0
0
0
0
0
0
0
0
0
0
0
0
0
0
0
0
0
0
0
0
0
0
0
1
0
0
0
0
0
0
0
0
0
0
0
0
0
0
0
0
0
0
0
0
0
0
0
0
0
0
0
0
0
0
0
0
0
0
0
0
0
0
0
0
0
0
0
0
0
0
0
0
0
0
1
0
0
0
0
0
0
0
0
0
0
0
0
0
0
0
0
0
0
0
0
0
0
0
0
0
0
0
0
0
0
0
0
0
0
0
0
0
0
0
0
0
0
0
0
0
0
0
0
0
0
0
0
0
0
0
0
0
1
0
0
0
0
0
0
0
0
0
0
0
0
0
0
0
0
0
0
0
0
0
0
0
0
0
0
0
0
0
0
0
0
0
0
0
0
0
0
0
0
0
0
0
0
0
0
0
0
0
0
0
0
0
0
0
0
0
0
0
0
0
0
0
0
0
0
0
0
0
0
0
0
0
0
0
0
0
0
0
0
0
0
0
0
0
0
0
0
0
0
0
0
0
0
0
0
0
0
0
0
0
0
0
0
0
0
0
0
0
0
0
0
0
0
0
0
0
0
0
0
0
0
0
0
0
0
0
0
0
0
0
0
1
0
0
0
0
0
0
0
0
0
0
0
0
0
0
0
0
0
0
0
1
0
0
0
0
0
0
0
0
0
0
0
0
0
0
0
0
0
0
0
0
0
0
0
0
0
0
0
0
0
0
0
0
0
0
0
0
0
0
0
0
0
0
0
0
0
0
0
0
0
0
0
0
0
1
0
0
0
0
0
0
0
0
0
0
0
0
0
0
0
0
0
0
0
0
0
0
0
1
0
0
0
0
0
0
0
0
0
0
0
0
0
0
0
0
0
0
0
1
0
0
0
1
0
0
0
0
0
0
0
0
0
0
0
0
0
0
0
0
0
0
0
0
0
0
0
0
0
1
0
0
0
0
0
0
0
1
0
0
0
0
0
0
0
0
0
0
0
0
0
0
0
0
0
0
0
0
0
0
0
0
0
0
1
0
0
0
0
0
0
0
1
0
0
0
0
0
0
1
0
0
0
0
0
0
0
0
0
0
0
0
0
0
0
0
0
0
0
0
0
0
0
0
0
0
0
0
0
0
0
0
0
0
0
0
0
0
1
0
0
0
0
0
1
0
0
0
0
0
0
0
1
0
0
0
0
0
0
0
0
0
0
0
0
0
1
0
0
0
0
0
0
0
0
0
0
0
0
0
0
0
0
0
0
0
0
0
0
0
0
0
0
0
0
0
0
0
0
0
0
0
0
0
0
0
0
0
0
0
0
0
0
0
0
0
0
0
0
0
1
0
0
0
0
0
0
0
0
0
0
0
0
0
0
0
0
0
0
0
1
0
0
0
0
0
0
0
0
0
1
0
0
0
0
0
0
0
0
0
0
0
0
0
0
0
0
0
0
0
0
0
0
0
0
0
0
0
0
0
1
0
1
0
0
0
0
0
0
0
0
0
0
0
0
0
0
0
0
0
0
0
0
0
0
0
0
0
0
0
1
0
0
0
1
0
0
0
0
0
0
0
0
0
0
0
0
0
0
0
0
0
0
0
0
0
0
0
0
0
0
0
0
1
0
0
0
0
0
0
0
0
0
0
0
0
0
0
0
0
0
0
0
0
0
0
0
0
0
1
0
0
0
0
0
0
0
0
0
0
0
0
0
0
0
0
0
0
0
0
0
0
0
1
0
0
0
0
0
0
1
0
0
0
0
0
0
0
0
0
0
0
1
0
0
0
0
0
0
0
0
0
0
0
0
0
0
0
0
0
0
0
0
1
0
0
0
0
0
0
0
0
0
0
0
1
0
0
0
0
0
0
0
0
0
0
0
0
0
0
0
0
0
0
0
0
0
1
0
0
0
0
0
0
0
0
0
1
1
0
1
0
1
0
0
0
0
0
0
0
0
0
0
0
1
0
0
0
0
0
1
1
0
0
0
0
0
0
1
0
0
0
0
0
1
1
1
0
0
0
0
0
0
0
0
0
0
0
0
1
1
0
0
1
0
0
0
0
0
1
0
0
0
1
0
1
0
0
0
0
0
0
0
1
0
0
0
0
0
0
0
1
0
0
1
0
0
0
0
0
0
0
0
0
0
0
0
0
0
0
1
0
0
0
0
0
0
0
0
0
0
0
0
0
0
0
0
0
0
0
0
0
0
0
0
0
0
0
0
0
0
0
0
0
0
0
0
1
0
0
0
0
0
0
1
0
0
0
1
0
0
0
0
0
0
0
0
0
0
0
1
0
0
0
0
0
0
0
0
0
0
0
0
0
0
0
0
0
0
0
0
0
0
0
0
0
0
0
0
0
0
0
0
0
0
0
0
0
0
0
0
1
1
0
0
0
0
0
0
0
0
0
0
0
0
0
1
0
0
0
0
0
0
0
0
0
0
0
0
0
0
0
0
0
0
0
0
0
0
0
0
0
0
0
0
0
0
0
0
0
0
0
0
0
0
0
0
0
0
0
0
0
0
0
0
0
0
0
0
0
0
0
0
0
0
0
0
0
0
0
0
0
0
0
0
0
0
0
0
1
1
0
0
0
0
0
0
0
0
1
0
0
0
0
0
0
0
0
0
0
0
0
0
0
0
0
0
0
0
0
0
0
0
1
0
0
0
0
0
0
0
0
0
0
0
0
0
0
0
0
1
0
0
0
0
0
0
0
0
0
0
0
0
0
0
0
0
0
0
0
0
0
0
0
0
0
0
0
0
0
0
0
0
0
0
0
0
0
0
0
0
0
0
0
0
0
0
0
0
0
0
0
0
0
0
0
0
0
0
0
0
0
0
0
0
0
0
0
0
0
0
0
0
0
0
0
0
0
0
0
0
0
0
0
0
0
0
0
0
0
0
1
1
0
0
0
0
0
1
0
0
0
0
0
0
0
0
0
0
0
0
1
0
0
0
0
0
0
0
0
0
0
0
0
0
0
0
0
0
0
0
0
0
0
0
0
0
0
0
0
0
0
0
0
0
0
0
0
0
0
0
0
0
0
0
0
0
0
0
0
0
0
0
0
0
1
0
1
0
0
0
0
0
0
0
0
0
0
0
0
0
0
0
0
0
0
1
0
0
0
0
0
0
0
0
0
0
0
0
0
0
0
0
0
0
0
0
0
0
0
0
0
0
0
0
0
0
0
0
0
0
0
0
0
0
0
0
0
0
0
0
0
0
0
0
0
0
0
0
0
0
0
0
0
0
0
0
0
0
0
0
0
0
0
0
0
0
1
0
0
0
0
0
0
0
0
0
0
1
0
0
0
0
0
0
0
0
0
0
0
0
0
0
0
0
0
0
0
0
0
0
0
0
0
0
0
0
0
0
0
0
0
0
0
0
0
1
0
0
0
0
0
0
0
0
0
0
0
0
0
0
0
0
0
0
0
0
0
0
0
0
0
0
0
0
0
0
0
0
0
0
0
0
0
0
0
0
0
0
0
0
0
0
0
0
0
0
0
0
0
0
0
0
0
0
0
0
0
0
0
0
0
0
0
0
0
0
0
0
0
0
0
0
0
0
0
0
0
1
0
0
0
0
0
0
0
0
0
0
0
0
0
0
0
0
0
0
0
0
0
0
0
0
0
0
0
0
0
0
0
0
0
0
0
0
0
0
0
0
0
0
0
0
0
0
0
0
0
0
0
0
0
0
0
0
0
0
0
0
0
0
0
0
0
0
0
0
0
0
0
0
0
0
0
0
0
0
0
0
0
0
0
0
0
0
0
0
0
0
0
0
0
0
0
0
0
0
0
0
0
0
0
0
0
0
0
0
0
0
0
0
0
0
0
0
0
0
0
0
0
0
0
1
0
0
0
0
0
0
0
0
0
0
0
0
0
0
0
0
0
0
0
0
0
0
0
0
0
0
0
0
0
0
0
0
0
0
0
0
0
0
0
0
0
0
0
0
0
0
0
0
0
0
0
0
0
0
0
0
0
0
0
0
0
0
0
0
0
0
0
0
0
0
0
0
0
0
0
0
0
0
0
0
0
1
0
0
0
0
0
0
0
1
0
0
0
0
0
0
0
0
0
0
0
0
0
0
0
0
0
0
0
0
0
0
0
0
0
0
0
0
0
0
0
0
0
0
0
0
0
1
0
0
0
0
0
0
0
0
0
0
0
0
0
0
0
0
0
0
0
0
0
1
0
0
0
0
0
0
0
0
0
0
0
0
1
1
0
0
0
0
0
0
0
0
0
0
0
0
0
0
0
1
1
0
1
0
0
0
0
0
0
0
0
0
1
0
0
0
0
0
0
1
0
0
0
0
0
0
0
0
0
0
1
0
0
0
0
1
0
1
0
0
0
0
0
0
0
1
0
0
0
1
0
0
0
1
0
1
1
0
0
1
1
0
0
0
1
0
0
0
1
0
0
0
0
0
0
0
0
0
1
0
0
0
0
0
0
1
0
0
0
0
0
0
0
0
0
0
0
0
0
0
0
0
0
0
0
0
0
0
0
0
0
0
0
1
0
0
1
0
0
0
0
0
0
0
0
0
0
0
0
0
0
0
0
0
0
1
0
0
1
0
0
0
0
0
0
0
0
0
0
0
1
0
0
1
0
0
0
0
0
0
0
0
0
0
0
1
1
0
0
0
0
0
0
0
0
0
0
0
0
1
0
0
0
0
0
0
0
0
0
0
0
0
0
0
0
0
0
1
0
0
0
0
0
0
0
0
0
0
0
0
0
0
0
0
0
1
0
0
0
0
0
0
0
0
0
0
0
0
0
0
0
0
0
0
0
0
0
0
0
0
0
0
0
0
0
0
0
0
0
0
0
0
0
0
0
0
1
0
0
0
0
0
0
0
0
0
0
0
0
0
0
0
0
0
0
0
0
0
0
0
0
0
0
0
0
0
0
0
0
0
0
0
0
0
0
0
0
0
0
0
0
0
1
0
0
0
0
0
0
0
0
0
0
0
0
0
0
0
0
0
0
0
0
0
0
0
0
0
0
0
0
0
0
0
0
0
0
0
0
0
0
0
0
0
0
0
0
0
0
0
1
0
0
0
0
0
0
0
0
0
0
1
0
0
0
0
0
0
0
0
0
0
0
0
0
0
0
1
0
0
1
0
0
0
0
0
0
0
0
0
0
0
0
0
0
0
0
0
0
0
0
0
0
0
1
0
0
0
0
0
0
0
0
0
0
0
0
0
0
0
0
0
0
0
0
0
0
0
0
0
0
0
0
0
0
0
0
0
0
0
1
0
0
0
0
0
0
0
0
0
0
0
0
0
0
0
0
0
0
0
0
0
0
0
0
0
0
0
0
0
0
0
0
0
0
0
0
0
0
0
0
0
0
0
0
0
0
0
0
0
0
0
0
0
0
0
0
0
0
0
0
0
0
0
0
0
0
0
0
0
0
0
0
0
0
0
0
1
0
0
0
0
0
0
0
0
0
0
0
0
0
0
0
0
0
0
0
0
0
0
0
0
0
0
0
0
0
0
0
0
0
0
0
0
0
0
0
1
0
0
0
0
0
0
0
0
0
0
0
0
1
1
0
0
0
0
0
0
0
0
0
0
0
0
0
0
0
0
0
0
0
0
0
0
0
0
0
0
0
0
0
0
0
0
0
0
0
0
0
0
0
0
0
0
0
0
0
0
0
0
0
0
0
0
0
0
0
0
0
0
0
0
0
0
0
0
0
0
0
0
0
0
0
0
0
0
0
0
0
0
0
0
0
0
0
0
0
0
0
0
0
0
0
0
0
0
0
0
0
0
0
0
0
1
0
1
0
0
0
0
0
0
0
1
1
1
1
0
0
0
0
0
0
0
0
0
0
0
0
0
0
0
0
0
0
0
0
0
0
0
0
0
0
0
0
1
1
0
0
0
0
0
0
0
0
0
0
0
0
0
0
0
0
0
0
1
0
0
0
0
0
0
0
1
1
0
1
1
0
0
1
0
0
0
0
0
0
0
1
0
1
0
0
0
0
0
0
0
0
0
0
0
0
0
0
0
0
0
0
0
0
0
0
0
0
0
0
0
1
1
0
0
0
1
1
0
0
0
0
1
0
0
1
0
1
0
0
0
0
0
1
0
0
0
1
0
0
0
0
0
0
0
0
0
0
0
0
0
0
0
0
0
0
0
0
0
0
0
0
0
0
0
1
0
0
0
0
0
0
1
0
0
0
0
0
0
0
0
0
0
0
0
0
0
0
0
0
0
0
0
0
0
0
0
0
0
0
0
0
1
0
1
0
0
0
0
0
0
0
1
0
0
0
0
0
0
0
0
0
0
0
1
0
0
0
0
0
0
0
0
0
1
0
0
0
0
0
0
0
1
0
0
0
0
0
0
0
1
0
0
0
0
0
0
0
0
0
0
0
0
0
0
0
0
0
0
0
1
0
1
0
0
0
0
0
1
0
0
0
0
0
0
0
0
0
0
0
0
0
0
0
0
0
0
0
0
0
0
0
0
0
1
0
1
0
0
0
0
0
0
0
0
0
1
0
0
0
0
0
1
0
0
0
0
0
0
0
0
0
0
0
0
0
0
0
1
0
0
0
0
0
0
0
0
1
0
0
0
0
0
0
0
0
0
0
0
0
0
0
0
0
0
0
0
0
0
0
0
0
0
0
0
0
0
0
1
0
0
0
0
0
0
0
0
0
0
0
0
0
0
0
0
1
0
0
0
0
0
0
0
0
1
0
0
0
0
0
0
0
0
0
1
0
0
0
0
0
1
0
0
0
0
0
0
0
0
0
0
0
0
0
0
0
0
0
0
0
1
0
0
0
0
0
0
1
0
0
0
0
0
0
0
0
1
0
0
0
0
0
0
0
0
0
0
0
0
0
0
1
0
0
1
0
0
0
1
0
0
0
0
0
0
0
0
0
0
0
0
0
0
0
0
1
0
0
0
0
0
0
0
0
0
0
1
0
1
0
0
0
0
0
0
1
0
0
0
0
0
0
0
0
0
0
0
0
0
0
0
0
0
0
0
0
0
0
0
0
0
0
0
1
1
0
0
0
0
0
0
1
0
0
0
0
0
0
0
0
0
0
0
0
0
1
0
0
0
0
0
0
0
1
0
0
0
0
0
0
0
0
0
0
0
0
0
0
0
0
0
0
0
0
0
0
0
0
0
0
0
1
0
0
0
0
0
0
0
0
0
0
1
0
0
1
0
0
0
0
0
0
0
0
0
0
0
0
0
0
0
0
0
0
0
0
0
0
0
0
0
0
0
0
0
1
0
0
0
0
0
0
0
1
0
0
0
0
0
0
0
1
0
0
0
0
1
0
0
0
0
0
0
0
0
0
0
0
1
0
1
0
0
0
1
0
				</DataArray>
				<DataArray type="Float64" Name="h" NumberOfComponents="1" Format="ascii">
1.1808255087
1.1808313257
1.1794372618
1.1805307334
1.1792793244
1.1795458912
1.1799845476
1.1811809755
1.1803173913
1.1820513026
1.1808782635
1.1797515419
1.1814310617
1.1813339628
1.1811568753
1.1824593509
1.1802633975
1.1819906117
1.1810390677
1.1811078990
1.1789288763
1.1816101989
1.1803453159
1.1787726964
1.1806154792
1.1828285225
1.1813057417
1.1783717781
1.1795267097
1.1817008564
1.1814423729
1.1800612665
1.1819015675
1.1793124312
1.1768307903
1.1786516373
1.1779145232
1.1804574803
1.1785266845
1.1785852569
1.1792228527
1.1776677708
1.1809899689
1.1795577445
1.1783654455
1.1786942547
1.1801331681
1.1762018927
1.1717328165
1.1726681332
1.1783272323
1.1786248139
1.1792208303
1.1754091129
1.1776491455
1.1811856319
1.1783138391
1.1750480726
1.1747884562
1.1753724147
1.1733682120
1.1738273985
1.1719334900
1.1782858021
1.1793009689
1.1774009118
1.1735954590
1.1728859106
1.1739560306
1.1744110785
1.1745939490
1.1772697168
1.1806735024
1.1747522167
1.1747468314
1.1787951313
1.1750182257
1.1735439140
1.1755822463
1.1785573343
1.1722779788
1.1767554595
1.1696995669
1.1738360908
1.1794415849
1.1778224940
1.1718065813
1.1748085454
1.1734253765
1.1704843646
1.1717839920
1.1783954186
1.1729596886
1.1713435052
1.1768262711
1.1774549401
1.1758781347
1.1790242625
1.1782537505
1.1718926387
1.1701549406
1.1721484477
1.1757983383
1.1755540241
1.1828997031
1.1744958383
1.1770083655
1.1711509820
1.1737746582
1.1764675617
1.1718916323
1.1709994679
1.1723270406
1.1718455170
1.1747841921
1.1697255926
1.1754466503
1.1824527617
1.1706392188
1.1737943383
1.1827604704
1.1754726455
1.1780622269
1.1833024524
1.1724714201
1.1708097506
1.1744514796
1.1833779594
1.1698816304
1.1696613238
1.1705920239
1.1765895547
1.1734637326
1.1691724163
1.1824642157
1.1708507976
1.1833054644
1.1690856971
1.1710774835
1.1825708474
1.1835072362
1.1829533147
1.1700785134
1.1820841068
1.1776352093
1.1710037427
1.1829865786
1.1684248527
1.1831072864
1.1679521918
1.1835776264
1.1687457479
1.1687039588
1.1676273575
1.1715733941
1.1690027866
1.1679018604
1.1832645947
1.1679573660
1.1841403246
1.1825070372
1.1684217203
1.1832877583
1.1837764134
1.1833063942
1.1691487214
1.1815425692
1.1829500032
1.1839478236
1.1687258410
1.1680582255
1.1842287685
1.1677711924
1.1834681278
1.1814579731
1.1673560764
1.1820086454
1.1684641545
1.1673992335
1.1838687514
1.1692225856
1.1808779499
1.1841971233
1.1779037852
1.1841752533
1.1848547969
1.1809707165
1.1676016693
1.1841835249
1.1850503534
1.1802763614
1.1673692902
1.1845364219
1.1803773365
1.1674133577
1.1687252962
1.1838913894
1.1796377105
1.1797594710
1.1678414130
1.1851012583
1.1772932457
1.1849242665
1.1676251531
1.1789469062
1.1843595076
1.1832011745
1.1837818894
1.1790849804
1.1823504162
1.1807129404
1.1846058229
1.1841122557
1.1844373735
1.1835185109
1.1800838881
1.1828051986
1.1842129696
1.1812969212
1.1843761165
1.1783618534
1.1712145272
1.1818441602
1.1730049585
1.1771387218
1.1681106919
1.1696333081
1.1749628937
1.1782171614
1.1703843452
1.1678634789
1.1720964429
1.1760428892
1.1679227271
1.1684724938
1.1739469415
1.1806142269
1.1834757406
1.1844661859
1.1826699200
1.1810605264
1.1840227830
1.1844538071
1.1822993840
1.1838026839
1.1831856615
1.1843698983
1.1812170126
1.1837813967
1.1843626057
1.1831025823
1.1816462527
1.1842294331
1.1799666966
1.1804250384
1.1845329689
1.1827707146
1.1835286579
1.1844390095
1.1724555111
1.1821829004
1.1774689672
1.1753042225
1.1732757908
1.1765234999
1.1687181641
1.1683638870
1.1786892673
1.1680611943
1.1714574429
1.1698911798
1.1817789960
1.1707161106
1.1743710576
1.1733861889
1.1785503855
1.1763807336
1.1742634296
1.1723417545
1.1776141014
1.1699447829
1.1681497233
1.1683094286
1.1687365616
1.1706337043
1.1715606793
1.1754288587
1.1838013836
1.1845138988
1.1846361475
1.1834815464
1.1809608537
1.1843157395
1.1840717045
1.1830229505
1.1814147346
1.1826313202
1.1840921456
1.1845866647
1.1845344965
1.1847173317
1.1838107175
1.1815662927
1.1807719866
1.1803088441
1.1834436519
1.1820061059
1.1830858443
1.1844227638
1.1778055025
1.1747053780
1.1756398549
1.1682879027
1.1790261616
1.1701653651
1.1727232342
1.1825428409
1.1709720272
1.1686253670
1.1821235886
1.1735797570
1.1768597217
1.1717306105
1.1689798028
1.1767180038
1.1757721957
1.1745882044
1.1685591661
1.1736856397
1.1718165729
1.1702050375
1.1690094115
1.1683877968
1.1788876026
1.1726251652
1.1779483075
1.1709055780
1.1838202667
1.1694913814
1.1833939574
1.1817665977
1.1829874602
1.1847342575
1.1813124970
1.1846548545
1.1841639479
1.1843855885
1.1848889719
1.1707296555
1.1781145535
1.1811131747
1.1739794088
1.1841380862
1.1846814777
1.1702123728
1.1838126305
1.1773134516
1.1823675163
1.1834349166
1.1729574366
1.1721869771
1.1696787946
1.1847186844
1.1819231810
1.1806538921
1.1844449809
1.1802211174
1.1790008430
1.1759952140
1.1849688634
1.1752528502
1.1717182878
1.1848738987
1.1689002758
1.1730252046
1.1738979187
1.1692546711
1.1864438663
1.1704566101
1.1781369704
1.1793585275
1.1712533986
1.1685295278
1.1829111718
1.1720273970
1.1824824286
1.1771950814
1.1750408017
1.1759726494
1.1851789858
1.1686423127
1.1792160534
1.1740071731
1.1820408308
1.1692950339
1.1729311525
1.1870514979
1.1863282735
1.1860063260
1.1834834008
1.1770512015
1.1704847577
1.1841119171
1.1721043632
1.1827919110
1.1688227383
1.1711980642
1.1782819844
1.1761097236
1.1846766396
1.1749163743
1.1791765018
1.1727346345
1.1783643997
1.1841864506
1.1701572147
1.1710951862
1.1833533423
1.1730465128
1.1778309417
1.1804352093
1.1812364878
1.1847401555
1.1714085693
1.1700125048
1.1746589855
1.1693976265
1.1850176461
1.1724910075
1.1816590059
1.1770494654
1.1701097259
1.1742729415
1.1710395899
1.1762713026
1.1749661709
1.1722875230
1.1718725985
1.1698467026
1.1806007852
1.1785730510
1.1757304604
1.1845004749
1.1735108887
1.1793847133
1.1838022819
1.1767555613
1.1777240429
1.1736679382
1.1727795860
1.1745422527
1.1690748296
1.1849700418
1.1789052959
1.1822783540
1.1812368562
1.1702958742
1.1713414710
1.1765142688
1.1708200147
1.1849962956
1.1809899522
1.1845638109
1.1687914149
1.1828441914
1.1733441030
1.1756932676
1.1775216715
1.1831343317
1.1851250759
1.1695441542
1.1837151531
1.1715556823
1.1826207230
1.1796750080
1.1753721644
1.1709067426
1.1850395865
1.1853541316
1.1866665970
1.1866863866
1.1813053116
1.1848836701
1.1691024314
1.1727452283
1.1718852941
1.1707827270
1.1865668331
1.1743349178
1.1866735786
1.1788459059
1.1786042701
1.1708690365
1.1853587278
1.1870525070
1.1856216765
1.1841722159
1.1715853675
1.1724136499
1.1871808145
1.1751296404
1.1732738476
1.1855525807
1.1860071489
1.1834838923
1.1831970096
1.1764396882
1.1852757398
1.1805746423
1.1779417261
1.1865659451
1.1819889808
1.1759089131
1.1837160682
1.1807141870
1.1853551768
1.1747786521
1.1795979133
1.1855654421
1.1841332637
1.1819896814
1.1775405489
1.1787353081
1.1695080551
1.1849436733
1.1730423242
1.1882658632
1.1767174991
1.1815697448
1.1824197218
1.1736269066
1.1845648082
1.1755096971
1.1854403644
1.1851259766
1.1838402489
1.1853596953
1.1841732010
1.1852768138
1.1815699378
1.1813059292
1.1845198841
1.1865715012
1.1854551443
1.1856707868
1.1845750231
1.1877196354
1.1826214754
1.1851296347
1.1869545061
1.1704139094
1.1861482012
1.1852334999
1.1822820809
1.1856035213
1.1814161363
1.1817336902
1.1873117668
1.1720129034
1.1707741483
1.1830512806
1.1876430630
1.1713408830
1.1848846234
1.1830926715
1.1718698345
1.1831978329
1.1756926542
1.1769827830
1.1690732360
1.1836238406
1.1778591704
1.1740928635
1.1768750379
1.1778310011
1.1859789492
1.1799655663
1.1798211406
1.1759089570
1.1833523408
1.1849379393
1.1736655266
1.1751296416
1.1890459110
1.1789021573
1.1858679502
1.1698463776
1.1727316491
1.1767554231
1.1879156375
1.1693969769
1.1841654948
1.1860063705
1.1831552237
1.1875117499
1.1789054692
1.1827009602
1.1858385463
1.1709801588
1.1844660793
1.1823791097
1.1839444150
1.1713395901
1.1853304780
1.1746575343
1.1869240319
1.1853730664
1.1724564463
1.1710933030
1.1894599520
1.1859629585
1.1859986207
1.1731548105
1.1883916501
1.1798212135
1.1856434159
1.1770373573
1.1854412757
1.1836246311
1.1824203583
1.1849446214
1.1701267626
1.1805045005
1.1860346402
1.1855665282
1.1844741149
1.1883595525
1.1727954495
1.1856045361
1.1874572785
1.1853732029
1.1880631841
1.1870645608
1.1817342268
1.1841341367
1.1830519930
1.1852344308
1.1741918043
1.1722348409
1.1752343431
1.1779695433
1.1854562417
1.1860234647
1.1847066596
1.1832327730
1.1707155646
1.1739378184
1.1822821959
1.1864772897
1.1718551982
1.1880475209
1.1848726609
1.1861776974
1.1859391036
1.1879456668
1.1838406263
1.1825647084
1.1845759509
1.1749995257
1.1852967234
1.1860402895
1.1861292653
1.1761204431
1.1734521405
1.1717806768
1.1758593906
1.1887690735
1.1843872118
1.1862105413
1.1856558355
1.1713988893
1.1712143812
1.1838404865
1.1865878413
1.1846435193
1.1877801392
1.1742441128
1.1878035228
1.1875137655
1.1715655979
1.1720944934
1.1852486193
1.1859562531
1.1737717465
1.1865791446
1.1870197679
1.1879597794
1.1729481084
1.1717443547
1.1724365123
1.1870333270
1.1874624032
1.1881493708
1.1881930535
1.1878552303
1.1731194870
1.1726080320
1.1743947851
1.1737197547
1.1880414920
1.1721980737
1.1718449229
1.1886155367
1.1722349856
1.1729164188
1.1894606653
1.1717249420
1.1861487696
1.1719297117
1.1877367736
1.1873247955
1.1717253952
1.1883922624
1.1718481062
1.1714119268
1.1876438419
1.1714400039
1.1884251631
1.1896253436
1.1717967989
1.1711200535
1.1873840895
1.1803683414
1.1800682449
1.1800737445
1.1803751180
1.1800824735
1.1797492297
1.1808753637
1.1807921226
1.1795522477
1.1795425235
1.1792831991
1.1795576744
1.1803215865
1.1811527394
1.1799809745
1.1816391269
1.1807956829
1.1800853187
1.1815687200
1.1819883410
1.1805330443
1.1794398768
1.1810325557
1.1816986257
1.1822161641
1.1797962639
1.1811845626
1.1828277129
1.1806137051
1.1820534130
1.1817613607
1.1814355543
1.1789730107
1.1823181553
1.1808432150
1.1816417154
1.1814404863
1.1815722527
1.1793114350
1.1818969671
1.1800523820
1.1817746470
1.1785828344
1.1791106655
1.1802645626
1.1824615670
1.1809826249
1.1785186389
1.1797979828
1.1822184027
1.1792160259
1.1813362360
1.1811091207
1.1789750820
1.1803546922
1.1760620785
1.1816149651
1.1780078602
1.1817656361
1.1789302805
1.1808511232
1.1811464218
1.1776864295
1.1762012290
1.1823208821
1.1783619088
1.1783264770
1.1801225900
1.1783805571
1.1787758545
1.1795350907
1.1783048872
1.1795841554
1.1813124352
1.1774835089
1.1823857244
1.1791175860
1.1773146811
1.1767485288
1.1817795584
1.1792106505
1.1760626203
1.1720706038
1.1725618118
1.1811534940
1.1780095245
1.1777080367
1.1776922565
1.1786566231
1.1792901258
1.1804666515
1.1766213123
1.1768316161
1.1719362336
1.1728891802
1.1773664923
1.1779155692
1.1782801692
1.1773179680
1.1755294764
1.1752940317
1.1795682291
1.1747527902
1.1757216908
1.1772670973
1.1806660420
1.1744649911
1.1800361639
1.1796710972
1.1774851085
1.1732731166
1.1767490106
1.1776727873
1.1750185308
1.1745944586
1.1744176534
1.1747472369
1.1795922007
1.1802948699
1.1739566085
1.1772634850
1.1823876118
1.1744114424
1.1777104748
1.1766225536
1.1776994248
1.1773719670
1.1735254868
1.1762855126
1.1729959473
1.1717298307
1.1786322963
1.1725589319
1.1787033809
1.1767519493
1.1738390971
1.1767111670
1.1720665973
1.1726639981
1.1733674723
1.1738269721
1.1803036314
1.1728529362
1.1744163801
1.1747881746
1.1756917464
1.1757225278
1.1793298923
1.1805618639
1.1755296461
1.1772639974
1.1766721491
1.1776526494
1.1740616939
1.1744646013
1.1732723508
1.1811919815
1.1764124154
1.1744362290
1.1800423771
1.1754101062
1.1752940168
1.1753726999
1.1783920838
1.1750477438
1.1796801740
1.1729606137
1.1735235196
1.1755541026
1.1782471999
1.1767136991
1.1799402659
1.1762867155
1.1721493722
1.1738662697
1.1724906453
1.1744857737
1.1774065957
1.1701542008
1.1735913359
1.1761588221
1.1790188361
1.1726865356
1.1774509013
1.1763667422
1.1729905400
1.1718935389
1.1744995389
1.1777044223
1.1693868030
1.1764156125
1.1737755404
1.1710013496
1.1728520505
1.1744354600
1.1723285288
1.1766737416
1.1787973495
1.1722445282
1.1756922116
1.1735428907
1.1805681767
1.1715493959
1.1793325644
1.1718962925
1.1764640540
1.1740610932
1.1724896118
1.1693889566
1.1757525892
1.1726858250
1.1778248177
1.1754724005
1.1737589060
1.1761589999
1.1828106761
1.1763684186
1.1744849498
1.1794455760
1.1785619448
1.1718056495
1.1697019318
1.1722770814
1.1754446853
1.1755821833
1.1738607478
1.1827593631
1.1748062232
1.1799449239
1.1715483817
1.1765880905
1.1728060054
1.1830490456
1.1708107613
1.1727546700
1.1715146311
1.1734238854
1.1768285398
1.1713398575
1.1700726170
1.1704843442
1.1717828659
1.1709866729
1.1749899090
1.1724738382
1.1744517674
1.1722376939
1.1696608088
1.1757996253
1.1699368815
1.1731543290
1.1757543888
1.1828115002
1.1737570153
1.1716033910
1.1824627383
1.1708512681
1.1734659925
1.1829006793
1.1758769860
1.1776338734
1.1736737204
1.1829519217
1.1728115843
1.1830492750
1.1700732797
1.1718434573
1.1711493638
1.1830346789
1.1749897554
1.1715131539
1.1747840645
1.1831060917
1.1727996280
1.1700784734
1.1835935042
1.1697260961
1.1727530971
1.1710042513
1.1709857601
1.1770084733
1.1828084435
1.1786460156
1.1740483684
1.1684434410
1.1699376156
1.1716009681
1.1835930585
1.1693995498
1.1702704886
1.1712419160
1.1737923928
1.1731460311
1.1687464659
1.1824542264
1.1708171003
1.1706385798
1.1821217873
1.1835774595
1.1687039639
1.1715742296
1.1830349696
1.1835948968
1.1829487537
1.1833055548
1.1728089415
1.1681781644
1.1828097750
1.1836045641
1.1682022760
1.1745675705
1.1736671322
1.1833039349
1.1698813583
1.1825043374
1.1830392198
1.1780631574
1.1705914897
1.1822341072
1.1832873838
1.1702767051
1.1684208553
1.1833792096
1.1679571071
1.1712411692
1.1833056556
1.1691717651
1.1685106375
1.1750608778
1.1702712247
1.1692222191
1.1690857527
1.1677714916
1.1818963399
1.1833941578
1.1710765297
1.1821234935
1.1740409299
1.1835933838
1.1684429080
1.1786473733
1.1708164381
1.1687250779
1.1700715730
1.1693993258
1.1680588147
1.1834675523
1.1679525375
1.1841958155
1.1756936899
1.1830402609
1.1836057079
1.1694757543
1.1682007433
1.1677238401
1.1820883044
1.1684258762
1.1829876371
1.1838677215
1.1682031667
1.1822356740
1.1745628911
1.1840885271
1.1835082139
1.1692212982
1.1702762501
1.1820047190
1.1705210096
1.1825734035
1.1681784848
1.1839351594
1.1841821400
1.1690036742
1.1679015348
1.1833944159
1.1761943669
1.1685108992
1.1826266838
1.1818977348
1.1750563556
1.1841737580
1.1692227024
1.1676268848
1.1832653141
1.1700707941
1.1809660527
1.1768308657
1.1674135824
1.1815476195
1.1839363849
1.1694775901
1.1687231238
1.1840897375
1.1677237533
1.1705201562
1.1687650506
1.1843550683
1.1682008606
1.1756920077
1.1837857294
1.1673696047
1.1695698826
1.1837774856
1.1691502227
1.1803740430
1.1682074140
1.1841416331
1.1772934623
1.1674918955
1.1842302084
1.1849228524
1.1814621733
1.1676253926
1.1761925072
1.1839493177
1.1850998525
1.1826281253
1.1797575397
1.1676228498
1.1673989714
1.1837544540
1.1843564062
1.1837870118
1.1846043868
1.1682084963
1.1687668210
1.1841554523
1.1690130137
1.1808814439
1.1695690768
1.1673558558
1.1768305121
1.1846564765
1.1848093394
1.1684660787
1.1841111263
1.1790837974
1.1802786196
1.1678635320
1.1674915845
1.1850517875
1.1676225823
1.1678263463
1.1677023921
1.1779040472
1.1848562124
1.1676014742
1.1783615505
1.1843684724
1.1831843111
1.1838597100
1.1838023549
1.1796389206
1.1848108292
1.1794057207
1.1843905693
1.1822966426
1.1840168461
1.1837552934
1.1806129276
1.1845379107
1.1845462313
1.1690159440
1.1838922206
1.1844434817
1.1835280636
1.1840355503
1.1799659042
1.1827684701
1.1842283914
1.1812150565
1.1846580270
1.1844645424
1.1841566954
1.1680652961
1.1792749222
1.1789473607
1.1678263525
1.1715671097
1.1817764171
1.1677020417
1.1733960218
1.1776139029
1.1683084168
1.1699431421
1.1689864901
1.1754329182
1.1786888498
1.1707181464
1.1678411426
1.1724650110
1.1765247293
1.1680614529
1.1692668526
1.1687154822
1.1743785399
1.1807146625
1.1834802478
1.1842163611
1.1843776404
1.1826294292
1.1809598760
1.1840175374
1.1794062623
1.1838603387
1.1843215772
1.1797437336
1.1840711876
1.1845125885
1.1843920534
1.1823535097
1.1837822016
1.1832023664
1.1843610089
1.1812994654
1.1838099440
1.1844217918
1.1845478272
1.1830840759
1.1815650168
1.1842141340
1.1800850153
1.1803081123
1.1842730216
1.1844813084
1.1828074814
1.1840361137
1.1835189538
1.1844451292
1.1720890202
1.1821219390
1.1796145849
1.1779477547
1.1757746863
1.1736946600
1.1760407061
1.1692701015
1.1684744257
1.1685580750
1.1782170408
1.1679222162
1.1692516142
1.1718248469
1.1702051692
1.1818473221
1.1680657493
1.1703840292
1.1739391964
1.1729961340
1.1790256688
1.1768599725
1.1747112509
1.1727333530
1.1771382472
1.1696356477
1.1689894754
1.1682883458
1.1792751245
1.1681109854
1.1689772640
1.1709763130
1.1695320160
1.1712104177
1.1749579026
1.1838190563
1.1844790195
1.1844552284
1.1843230624
1.1847330746
1.1834769173
1.1810616910
1.1800838189
1.1843848942
1.1797442972
1.1840232209
1.1829860639
1.1813116319
1.1826720538
1.1842170238
1.1841371915
1.1846805362
1.1844829094
1.1846227751
1.1837820014
1.1816478022
1.1806531633
1.1845646698
1.1804259079
1.1842736448
1.1834334981
1.1819221768
1.1831044039
1.1843636883
1.1782815400
1.1742560637
1.1761107617
1.1681490714
1.1785504261
1.1704865188
1.1723324744
1.1824812217
1.1706314330
1.1695343762
1.1695276251
1.1688221272
1.1799522696
1.1821848748
1.1740135373
1.1763792530
1.1721122144
1.1687388160
1.1771948803
1.1753000729
1.1750442728
1.1683644651
1.1796149427
1.1698125065
1.1732662360
1.1714510274
1.1698924268
1.1692530563
1.1685304625
1.1793581676
1.1730334372
1.1774687814
1.1712586451
1.1692544168
1.1701578249
1.1770494531
1.1804134528
1.1730479342
1.1838024861
1.1844797345
1.1697035781
1.1707432403
1.1833522526
1.1779429684
1.1816582463
1.1830244820
1.1738634748
1.1714097618
1.1697996659
1.1846374571
1.1814156621
1.1800843554
1.1847393356
1.1841853476
1.1843163257
1.1791762569
1.1800448878
1.1749667666
1.1850165596
1.1758426823
1.1721267945
1.1847964456
1.1704312846
1.1776724644
1.1809892502
1.1735609301
1.1840928753
1.1845876894
1.1693723166
1.1704689901
1.1838011217
1.1768854121
1.1822775190
1.1834450930
1.1733480665
1.1718177116
1.1695092452
1.1846242527
1.1820072334
1.1807727358
1.1849038862
1.1844995239
1.1845653889
1.1798036076
1.1794091939
1.1755521115
1.1848415667
1.1748302554
1.1713846284
1.1849953521
1.1847790951
1.1691025265
1.1802758463
1.1726161947
1.1829700658
1.1698176657
1.1743383507
1.1690111695
1.1866655930
1.1869687778
1.1860404928
1.1707850546
1.1866727623
1.1843408269
1.1786040723
1.1698133806
1.1788877681
1.1836141865
1.1709016993
1.1822108540
1.1683868774
1.1828432384
1.1724192205
1.1825442124
1.1767172933
1.1745826868
1.1854472667
1.1764400341
1.1855519049
1.1687928438
1.1796747163
1.1735716259
1.1823787554
1.1695436722
1.1733492041
1.1695293211
1.1865052087
1.1867804735
1.1867182403
1.1701083082
1.1863982863
1.1838303755
1.1775215383
1.1701650037
1.1799527609
1.1844655386
1.1717232971
1.1831339486
1.1686257898
1.1715601366
1.1778055466
1.1756372091
1.1850389534
1.1753737449
1.1787439798
1.1726967389
1.1723377413
1.1701203227
1.1795976980
1.1779431299
1.1775404192
1.1763290528
1.1841649834
1.1699006866
1.1743978232
1.1707614137
1.1699011709
1.1803857121
1.1833951413
1.1726492375
1.1773722614
1.1800451852
1.1766036809
1.1808394224
1.1783654088
1.1846555761
1.1710722964
1.1697987916
1.1742188557
1.1720133880
1.1726512044
1.1736272044
1.1691896755
1.1848901695
1.1795245311
1.1721256735
1.1817673489
1.1802214315
1.1804349121
1.1704145928
1.1707747478
1.1766035266
1.1755097310
1.1703220847
1.1738626252
1.1707424227
1.1713404988
1.1847972429
1.1804139066
1.1758424937
1.1745316085
1.1700133319
1.1781146510
1.1719692615
1.1715048731
1.1724917227
1.1695933004
1.1802409125
1.1790010438
1.1781762167
1.1753424434
1.1844458025
1.1697027044
1.1738776697
1.1704158163
1.1797362786
1.1838138194
1.1721852929
1.1762966003
1.1810625100
1.1810621807
1.1773419289
1.1849047104
1.1707286198
1.1702117570
1.1732467373
1.1724220867
1.1741448340
1.1689158880
1.1848428830
1.1784528294
1.1762712489
1.1729564380
1.1823684077
1.1808398224
1.1701275838
1.1710485358
1.1759949554
1.1761040472
1.1699891879
1.1748297024
1.1713838035
1.1710674160
1.1848748974
1.1811137854
1.1768853462
1.1739782396
1.1845494752
1.1686410099
1.1731549244
1.1713400025
1.1701079560
1.1829122244
1.1866873667
1.1729244531
1.1863991032
1.1778590829
1.1752404153
1.1770508896
1.1827922985
1.1709806258
1.1851602471
1.1869697735
1.1850326770
1.1692958256
1.1859076628
1.1837686839
1.1718554672
1.1711939282
1.1869353748
1.1756988524
1.1725336463
1.1847798091
1.1863291459
1.1829410094
1.1829414561
1.1827195775
1.1792162732
1.1749130948
1.1707073433
1.1846772682
1.1836882915
1.1852011121
1.1864448705
1.1799651719
1.1785903145
1.1870206576
1.1869773871
1.1814370963
1.1872148982
1.1749763143
1.1848293945
1.1689001843
1.1724566475
1.1716117237
1.1704551204
1.1864607211
1.1738924959
1.1867190923
1.1785048427
1.1781370392
1.1836886838
1.1707161347
1.1852152023
1.1867815068
1.1852835684
1.1698180576
1.1860056285
1.1841947111
1.1713613082
1.1720211606
1.1870216008
1.1747910481
1.1729431537
1.1851796753
1.1860413521
1.1838308686
1.1852679027
1.1832755680
1.1802763960
1.1759712647
1.1705917471
1.1854478841
1.1851218455
1.1865062329
1.1863018372
1.1807215343
1.1776143793
1.1865070864
1.1869345099
1.1821050947
1.1755430596
1.1832750441
1.1851611269
1.1837696823
1.1803858609
1.1852022386
1.1743976614
1.1806009839
1.1807219850
1.1852801624
1.1792168346
1.1871697071
1.1857409502
1.1863391775
1.1705209237
1.1840631727
1.1771337728
1.1875697532
1.1821057887
1.1846536661
1.1771338505
1.1755514624
1.1783655656
1.1866900165
1.1710735158
1.1693708982
1.1807140486
1.1798039772
1.1705203013
1.1857819988
1.1849389662
1.1726964147
1.1718158336
1.1816559037
1.1878230554
1.1787437245
1.1855631286
1.1763291122
1.1752525918
1.1812360755
1.1823130936
1.1710402605
1.1809985822
1.1879529254
1.1694904351
1.1716250323
1.1794093955
1.1732463968
1.1706216018
1.1822939265
1.1873910917
1.1732459778
1.1716849082
1.1845504703
1.1839340418
1.1751023888
1.1855299096
1.1850335097
1.1717174504
1.1841083967
1.1852162062
1.1841957508
1.1813555608
1.1851230186
1.1753423745
1.1812362971
1.1767173545
1.1814376946
1.1847893087
1.1785731750
1.1869004997
1.1856323622
1.1859557585
1.1845330649
1.1881418462
1.1827203684
1.1854045898
1.1783641482
1.1765142952
1.1793848525
1.1873241714
1.1696777695
1.1730425333
1.1703213387
1.1864501698
1.1852745022
1.1735106180
1.1825511357
1.1885739144
1.1857649800
1.1773420042
1.1706222319
1.1813554188
1.1816849264
1.1815914375
1.1877360015
1.1719688532
1.1708194659
1.1829419134
1.1881178676
1.1727791337
1.1713399999
1.1848302913
1.1833612411
1.1745420513
1.1856952528
1.1852844722
1.1715017653
1.1832764658