<VTKFile type="UnstructuredGrid" version="0.1">
	<UnstructuredGrid>
		<Piece NumberOfPoints="1862" NumberOfCells="3498">
			<CellData>
				<DataArray type="Int32" Name="type" NumberOfComponents="1" Format="ascii">
0
0
0
0
0
0
0
0
0
0
0
0
0
0
0
0
1
0
0
1
0
0
0
0
0
0
0
0
0
0
0
0
0
1
0
0
0
0
0
0
0
0
0
0
0
0
0
0
0
0
1
0
0
0
0
0
0
0
0
0
0
1
0
0
0
0
0
0
0
0
0
0
0
0
0
0
0
0
0
0
0
0
0
0
0
0
0
0
0
0
0
0
0
0
0
0
0
0
0
0
0
0
0
0
0
0
0
0
0
0
0
0
0
0
0
0
0
0
0
0
0
0
0
1
0
0
0
0
0
0
0
0
0
0
0
0
0
0
0
0
0
0
0
0
0
0
0
0
0
0
0
1
0
1
1
0
0
0
0
0
0
0
0
0
0
0
0
0
1
0
1
0
0
0
0
1
0
0
0
0
0
0
0
0
1
1
0
0
0
0
0
1
0
0
0
0
0
0
0
0
1
0
0
0
0
0
0
0
0
0
0
0
0
0
0
0
0
0
0
0
0
0
0
0
0
0
0
0
0
0
0
0
0
1
0
0
0
0
0
0
0
0
0
0
0
0
0
0
0
0
0
0
0
0
0
0
0
0
0
0
0
0
0
0
0
0
0
0
0
0
0
0
0
0
0
0
0
0
0
0
0
1
0
0
0
0
0
0
0
0
0
0
0
0
0
0
0
0
0
0
0
0
0
0
0
0
0
0
0
0
0
0
0
0
0
0
0
0
0
0
0
0
0
0
0
0
0
0
0
0
0
0
1
0
0
0
0
0
0
0
0
0
0
0
0
0
0
0
0
0
0
0
0
0
0
0
0
0
0
0
0
0
0
0
0
0
0
0
0
0
0
0
0
0
0
0
0
0
0
0
0
0
0
0
0
0
0
0
0
0
1
0
0
0
0
0
0
0
0
0
0
0
0
0
0
0
0
0
0
0
0
0
0
0
0
0
0
0
0
0
0
0
0
0
0
0
0
0
0
0
0
0
0
0
0
0
0
0
0
0
0
0
0
0
0
0
0
0
0
0
0
0
0
0
0
0
0
0
0
0
0
0
0
0
0
0
0
0
0
0
0
0
0
0
0
0
0
0
0
0
0
0
0
0
0
0
0
0
0
0
0
0
0
0
0
0
0
0
0
0
0
0
0
0
0
0
0
0
0
0
0
0
0
0
0
0
0
0
0
0
0
0
0
1
0
0
0
0
0
0
0
0
0
0
0
0
0
0
0
0
0
0
0
1
0
0
0
0
0
0
0
0
0
0
0
0
0
0
0
0
0
0
0
0
0
0
0
0
0
0
0
0
0
0
0
0
0
0
0
0
0
0
0
0
0
0
0
0
0
0
0
0
0
0
0
0
0
1
0
0
0
0
0
0
0
0
0
0
0
0
0
0
0
0
0
0
0
0
0
0
0
1
0
0
0
0
0
0
0
0
0
0
0
0
0
0
0
0
0
0
0
1
0
0
0
1
0
0
0
0
0
0
0
0
0
0
0
0
0
0
0
0
0
0
0
0
0
0
0
0
0
1
0
0
0
0
0
0
0
1
0
0
0
0
0
0
0
0
0
0
0
0
0
0
0
0
0
0
0
0
0
0
0
0
0
0
1
0
0
0
0
0
0
0
1
0
0
0
0
0
0
1
0
0
0
0
0
0
0
0
0
0
0
0
0
0
0
0
0
0
0
0
0
0
0
0
0
0
0
0
0
0
0
0
0
0
0
0
0
0
1
0
0
0
0
0
1
0
0
0
0
0
0
0
1
0
0
0
0
0
0
0
0
0
0
0
0
0
1
0
0
0
0
0
0
0
0
0
0
0
0
0
0
0
0
0
0
0
0
0
0
0
0
0
0
0
0
0
0
0
0
0
0
0
0
0
0
0
0
0
0
0
0
0
0
0
0
0
0
0
0
0
1
0
0
0
0
0
0
0
0
0
0
0
0
0
0
0
0
0
0
0
1
0
0
0
0
0
0
0
0
0
1
0
0
0
0
0
0
0
0
0
0
0
0
0
0
0
0
0
0
0
0
0
0
0
0
0
0
0
0
0
1
0
1
0
0
0
0
0
0
0
0
0
0
0
0
0
0
0
0
0
0
0
0
0
0
0
0
0
0
0
1
0
0
0
1
0
0
0
0
0
0
0
0
0
0
0
0
0
0
0
0
0
0
0
0
0
0
0
0
0
0
0
0
1
0
0
0
0
0
0
0
0
0
0
0
0
0
0
0
0
0
0
0
0
0
0
0
0
0
1
0
0
0
0
0
0
0
0
0
0
0
0
0
0
0
0
0
0
0
0
0
0
0
1
0
0
0
0
0
0
1
0
0
0
0
0
0
0
0
0
0
0
1
0
0
0
0
0
0
0
0
0
0
0
0
0
0
0
0
0
0
0
0
1
0
0
0
0
0
0
0
0
0
0
0
1
0
0
0
0
0
0
0
0
0
0
0
0
0
0
0
0
0
0
0
0
0
1
0
0
0
0
0
0
0
0
0
1
1
0
1
0
1
0
0
0
0
0
0
0
0
0
0
0
1
0
0
0
0
0
1
1
0
0
0
0
0
0
1
0
0
0
0
0
1
1
1
0
0
0
0
0
0
0
0
0
0
0
0
1
1
0
0
1
0
0
0
0
0
1
0
0
0
1
0
1
0
0
0
0
0
0
0
1
0
0
0
0
0
0
0
1
0
0
1
0
0
0
0
0
0
0
0
0
0
0
0
0
0
0
1
0
0
0
0
0
0
0
0
0
0
0
0
0
0
0
0
0
0
0
0
0
0
0
0
0
0
0
0
0
0
0
0
0
0
0
0
1
0
0
0
0
0
0
1
0
0
0
1
0
0
0
0
0
0
0
0
0
0
0
1
0
0
0
0
0
0
0
0
0
0
0
0
0
0
0
0
0
0
0
0
0
0
0
0
0
0
0
0
0
0
0
0
0
0
0
0
0
0
0
0
1
1
0
0
0
0
0
0
0
0
0
0
0
0
0
1
0
0
0
0
0
0
0
0
0
0
0
0
0
0
0
0
0
0
0
0
0
0
0
0
0
0
0
0
0
0
0
0
0
0
0
0
0
0
0
0
0
0
0
0
0
0
0
0
0
0
0
0
0
0
0
0
0
0
0
0
0
0
0
0
0
0
0
0
0
0
0
0
1
1
0
0
0
0
0
0
0
0
1
0
0
0
0
0
0
0
0
0
0
0
0
0
0
0
0
0
0
0
0
0
0
0
1
0
0
0
0
0
0
0
0
0
0
0
0
0
0
0
0
1
0
0
0
0
0
0
0
0
0
0
0
0
0
0
0
0
0
0
0
0
0
0
0
0
0
0
0
0
0
0
0
0
0
0
0
0
0
0
0
0
0
0
0
0
0
0
0
0
0
0
0
0
0
0
0
0
0
0
0
0
0
0
0
0
0
0
0
0
0
0
0
0
0
0
0
0
0
0
0
0
0
0
0
0
0
0
0
0
0
0
1
1
0
0
0
0
0
1
0
0
0
0
0
0
0
0
0
0
0
0
1
0
0
0
0
0
0
0
0
0
0
0
0
0
0
0
0
0
0
0
0
0
0
0
0
0
0
0
0
0
0
0
0
0
0
0
0
0
0
0
0
0
0
0
0
0
0
0
0
0
0
0
0
0
1
0
1
0
0
0
0
0
0
0
0
0
0
0
0
0
0
0
0
0
0
1
0
0
0
0
0
0
0
0
0
0
0
0
0
0
0
0
0
0
0
0
0
0
0
0
0
0
0
0
0
0
0
0
0
0
0
0
0
0
0
0
0
0
0
0
0
0
0
0
0
0
0
0
0
0
0
0
0
0
0
0
0
0
0
0
0
0
0
0
0
0
1
0
0
0
0
0
0
0
0
0
0
1
0
0
0
0
0
0
0
0
0
0
0
0
0
0
0
0
0
0
0
0
0
0
0
0
0
0
0
0
0
0
0
0
0
0
0
0
0
1
0
0
0
0
0
0
0
0
0
0
0
0
0
0
0
0
0
0
0
0
0
0
0
0
0
0
0
0
0
0
0
0
0
0
0
0
0
0
0
0
0
0
0
0
0
0
0
0
0
0
0
0
0
0
0
0
0
0
0
0
0
0
0
0
0
0
0
0
0
0
0
0
0
0
0
0
0
0
0
0
0
1
0
0
0
0
0
0
0
0
0
0
0
0
0
0
0
0
0
0
0
0
0
0
0
0
0
0
0
0
0
0
0
0
0
0
0
0
0
0
0
0
0
0
0
0
0
0
0
0
0
0
0
0
0
0
0
0
0
0
0
0
0
0
0
0
0
0
0
0
0
0
0
0
0
0
0
0
0
0
0
0
0
0
0
0
0
0
0
0
0
0
0
0
0
0
0
0
0
0
0
0
0
0
0
0
0
0
0
0
0
0
0
0
0
0
0
0
0
0
0
0
0
0
0
1
0
0
0
0
0
0
0
0
0
0
0
0
0
0
0
0
0
0
0
0
0
0
0
0
0
0
0
0
0
0
0
0
0
0
0
0
0
0
0
0
0
0
0
0
0
0
0
0
0
0
0
0
0
0
0
0
0
0
0
0
0
0
0
0
0
0
0
0
0
0
0
0
0
0
0
0
0
0
0
0
0
1
0
0
0
0
0
0
0
1
0
0
0
0
0
0
0
0
0
0
0
0
0
0
0
0
0
0
0
0
0
0
0
0
0
0
0
0
0
0
0
0
0
0
0
0
0
1
0
0
0
0
0
0
0
0
0
0
0
0
0
0
0
0
0
0
0
0
0
1
0
0
0
0
0
0
0
0
0
0
0
0
1
1
0
0
0
0
0
0
0
0
0
0
0
0
0
0
0
1
1
0
1
0
0
0
0
0
0
0
0
0
1
0
0
0
0
0
0
1
0
0
0
0
0
0
0
0
0
0
1
0
0
0
0
1
0
1
0
0
0
0
0
0
0
1
0
0
0
1
0
0
0
1
0
1
1
0
0
1
1
0
0
0
1
0
0
0
1
0
0
0
0
0
0
0
0
0
1
0
0
0
0
0
0
1
0
0
0
0
0
0
0
0
0
0
0
0
0
0
0
0
0
0
0
0
0
0
0
0
0
0
0
1
0
0
1
0
0
0
0
0
0
0
0
0
0
0
0
0
0
0
0
0
0
1
0
0
1
0
0
0
0
0
0
0
0
0
0
0
1
0
0
1
0
0
0
0
0
0
0
0
0
0
0
1
1
0
0
0
0
0
0
0
0
0
0
0
0
1
0
0
0
0
0
0
0
0
0
0
0
0
0
0
0
0
0
1
0
0
0
0
0
0
0
0
0
0
0
0
0
0
0
0
0
1
0
0
0
0
0
0
0
0
0
0
0
0
0
0
0
0
0
0
0
0
0
0
0
0
0
0
0
0
0
0
0
0
0
0
0
0
0
0
0
0
1
0
0
0
0
0
0
0
0
0
0
0
0
0
0
0
0
0
0
0
0
0
0
0
0
0
0
0
0
0
0
0
0
0
0
0
0
0
0
0
0
0
0
0
0
0
1
0
0
0
0
0
0
0
0
0
0
0
0
0
0
0
0
0
0
0
0
0
0
0
0
0
0
0
0
0
0
0
0
0
0
0
0
0
0
0
0
0
0
0
0
0
0
0
1
0
0
0
0
0
0
0
0
0
0
1
0
0
0
0
0
0
0
0
0
0
0
0
0
0
0
1
0
0
1
0
0
0
0
0
0
0
0
0
0
0
0
0
0
0
0
0
0
0
0
0
0
0
1
0
0
0
0
0
0
0
0
0
0
0
0
0
0
0
0
0
0
0
0
0
0
0
0
0
0
0
0
0
0
0
0
0
0
0
1
0
0
0
0
0
0
0
0
0
0
0
0
0
0
0
0
0
0
0
0
0
0
0
0
0
0
0
0
0
0
0
0
0
0
0
0
0
0
0
0
0
0
0
0
0
0
0
0
0
0
0
0
0
0
0
0
0
0
0
0
0
0
0
0
0
0
0
0
0
0
0
0
0
0
0
0
1
0
0
0
0
0
0
0
0
0
0
0
0
0
0
0
0
0
0
0
0
0
0
0
0
0
0
0
0
0
0
0
0
0
0
0
0
0
0
0
1
0
0
0
0
0
0
0
0
0
0
0
0
1
1
0
0
0
0
0
0
0
0
0
0
0
0
0
0
0
0
0
0
0
0
0
0
0
0
0
0
0
0
0
0
0
0
0
0
0
0
0
0
0
0
0
0
0
0
0
0
0
0
0
0
0
0
0
0
0
0
0
0
0
0
0
0
0
0
0
0
0
0
0
0
0
0
0
0
0
0
0
0
0
0
0
0
0
0
0
0
0
0
0
0
0
0
0
0
0
0
0
0
0
0
0
1
0
1
0
0
0
0
0
0
0
1
1
1
1
0
0
0
0
0
0
0
0
0
0
0
0
0
0
0
0
0
0
0
0
0
0
0
0
0
0
0
0
1
1
0
0
0
0
0
0
0
0
0
0
0
0
0
0
0
0
0
0
1
0
0
0
0
0
0
0
1
1
0
1
1
0
0
1
0
0
0
0
0
0
0
1
0
1
0
0
0
0
0
0
0
0
0
0
0
0
0
0
0
0
0
0
0
0
0
0
0
0
0
0
0
1
1
0
0
0
1
1
0
0
0
0
1
0
0
1
0
1
0
0
0
0
0
1
0
0
0
1
0
0
0
0
0
0
0
0
0
0
0
0
0
0
0
0
0
0
0
0
0
0
0
0
0
0
0
1
0
0
0
0
0
0
1
0
0
0
0
0
0
0
0
0
0
0
0
0
0
0
0
0
0
0
0
0
0
0
0
0
0
0
0
0
1
0
1
0
0
0
0
0
0
0
1
0
0
0
0
0
0
0
0
0
0
0
1
0
0
0
0
0
0
0
0
0
1
0
0
0
0
0
0
0
1
0
0
0
0
0
0
0
1
0
0
0
0
0
0
0
0
0
0
0
0
0
0
0
0
0
0
0
1
0
1
0
0
0
0
0
1
0
0
0
0
0
0
0
0
0
0
0
0
0
0
0
0
0
0
0
0
0
0
0
0
0
1
0
1
0
0
0
0
0
0
0
0
0
1
0
0
0
0
0
1
0
0
0
0
0
0
0
0
0
0
0
0
0
0
0
1
0
0
0
0
0
0
0
0
1
0
0
0
0
0
0
0
0
0
0
0
0
0
0
0
0
0
0
0
0
0
0
0
0
0
0
0
0
0
0
1
0
0
0
0
0
0
0
0
0
0
0
0
0
0
0
0
1
0
0
0
0
0
0
0
0
1
0
0
0
0
0
0
0
0
0
1
0
0
0
0
0
1
0
0
0
0
0
0
0
0
0
0
0
0
0
0
0
0
0
0
0
1
0
0
0
0
0
0
1
0
0
0
0
0
0
0
0
1
0
0
0
0
0
0
0
0
0
0
0
0
0
0
1
0
0
1
0
0
0
1
0
0
0
0
0
0
0
0
0
0
0
0
0
0
0
0
1
0
0
0
0
0
0
0
0
0
0
1
0
1
0
0
0
0
0
0
1
0
0
0
0
0
0
0
0
0
0
0
0
0
0
0
0
0
0
0
0
0
0
0
0
0
0
0
1
1
0
0
0
0
0
0
1
0
0
0
0
0
0
0
0
0
0
0
0
0
1
0
0
0
0
0
0
0
1
0
0
0
0
0
0
0
0
0
0
0
0
0
0
0
0
0
0
0
0
0
0
0
0
0
0
0
1
0
0
0
0
0
0
0
0
0
0
1
0
0
1
0
0
0
0
0
0
0
0
0
0
0
0
0
0
0
0
0
0
0
0
0
0
0
0
0
0
0
0
0
1
0
0
0
0
0
0
0
1
0
0
0
0
0
0
0
1
0
0
0
0
1
0
0
0
0
0
0
0
0
0
0
0
1
0
1
0
0
0
1
0
				</DataArray>
				<DataArray type="Float64" Name="h" NumberOfComponents="1" Format="ascii">
1.2167156694
1.2167173105
1.2178571271
1.2184263613
1.2169781925
1.2180098232
1.2177566918
1.2178203965
1.2181305516
1.2181299409
1.2186108708
1.2183993334
1.2161029985
1.2187029129
1.2175226423
1.2149047667
1.2186729485
1.2171337794
1.2164447267
1.2188942385
1.2180864882
1.2148364881
1.2151521805
1.2169978327
1.2187919343
1.2151433260
1.2128045626
1.2105074343
1.2154673833
1.2186868281
1.2190035457
1.2156926132
1.2140796814
1.2184200854
1.2149261742
1.2155740806
1.2171782119
1.2133275529
1.2095114911
1.2171122520
1.2158637114
1.2117440496
1.2135569934
1.2136401211
1.2158455931
1.2115458149
1.2139463523
1.2141247527
1.1947911004
1.1964674434
1.2177548730
1.2138226739
1.2142685030
1.2071656829
1.2137444626
1.2115582323
1.2125289689
1.2118620070
1.2098997082
1.2092440646
1.2081905920
1.2099675542
1.1968072528
1.2143630256
1.2120159867
1.2080841704
1.1978026522
1.1984521222
1.2094810421
1.2112987559
1.2099023456
1.2142392253
1.2112437054
1.2056703564
1.2078629208
1.2052021058
1.2115355401
1.2072505097
1.2130651399
1.2074538762
1.2049577398
1.2070713727
1.1867087804
1.1996869739
1.2074613877
1.2050193691
1.2032447326
1.2002687346
1.2049117676
1.1886679421
1.2010655380
1.2058846520
1.2057277899
1.1905846269
1.2046053925
1.2056685527
1.2013748837
1.2081036673
1.2078623000
1.2030212382
1.1887478958
1.2052014311
1.2040074387
1.2136427264
1.2180837559
1.1986730210
1.2021898070
1.1927534334
1.2069484961
1.2052958938
1.1925355845
1.1907130456
1.2030912170
1.1989948160
1.2032266912
1.1936525445
1.2047623158
1.2186091067
1.1948676165
1.2022315144
1.2180239286
1.2019580716
1.2027498146
1.2197037499
1.2010425640
1.1928466781
1.2038771269
1.2195743301
1.1960512731
1.1925039371
1.1973101154
1.2027652143
1.2026951344
1.1943056225
1.2188888668
1.1971262391
1.2150926746
1.1925311112
1.2016966629
1.2131044514
1.2194401895
1.2194410683
1.1953605982
1.2120484617
1.2033778260
1.1995175994
1.2141074401
1.1863645079
1.2191471750
1.1845035256
1.2150101348
1.1923406788
1.1909092943
1.1862451019
1.2034100217
1.1902894636
1.1873119814
1.2179783346
1.1855148245
1.2199484694
1.2119931583
1.1875800980
1.2137066329
1.2189130276
1.2188880242
1.1883835085
1.2107123428
1.2130383709
1.2200087961
1.1889327749
1.1888701436
1.2204461517
1.1862723619
1.2177439083
1.2094608896
1.1819554803
1.2108205373
1.1832217107
1.1828753469
1.2187481649
1.1902549878
1.2078851535
1.2196734974
1.2012348882
1.2205540718
1.2209832653
1.2091853183
1.1836194174
1.2201899621
1.2215199484
1.2060461071
1.1834970268
1.2205193289
1.2074233105
1.1820774997
1.1849494071
1.2172305191
1.2039803528
1.2053446176
1.1813504408
1.2216148278
1.1999939870
1.2211744433
1.1830965610
1.2017463504
1.2180517844
1.2122409176
1.2142892799
1.2031016287
1.2099201043
1.2052127556
1.2207468696
1.2175861555
1.2187938202
1.2132776284
1.2032323149
1.2111255825
1.2167267389
1.2069941192
1.2194859612
1.2006859800
1.1886108164
1.2085493183
1.1921256884
1.1984416333
1.1810656026
1.1849331592
1.1956642002
1.1993193201
1.1867513277
1.1823423203
1.1904162505
1.1972617401
1.1806835634
1.1819548530
1.1938600647
1.2039282428
1.2101123679
1.2200850460
1.2076662254
1.2030677742
1.2123222693
1.2162674722
1.2086384693
1.2131386564
1.2110146579
1.2172452075
1.2056862201
1.2112487757
1.2147870337
1.2089274166
1.2047496208
1.2157654947
1.2019998724
1.2012588367
1.2170925208
1.2098697287
1.2120887071
1.2187863337
1.1902671753
1.2062829618
1.1966857442
1.1938777311
1.1902831440
1.1969541489
1.1816394756
1.1795114932
1.1988390821
1.1800298514
1.1866002168
1.1830339881
1.2072565221
1.1866072195
1.1936575899
1.1919874027
1.1976550741
1.1954305060
1.1920921946
1.1884495340
1.1980476199
1.1847807143
1.1792379273
1.1805778282
1.1802908678
1.1847689314
1.1884608142
1.1954773530
1.2077709460
1.2153280189
1.2141957499
1.2087909133
1.2019370902
1.2100969005
1.2111024371
1.2053086776
1.2010738731
1.2063669177
1.2089457681
1.2126292065
1.2170855562
1.2150596677
1.2099511287
1.2035415791
1.1995003937
1.2001992329
1.2065643314
1.2025635843
1.2076088483
1.2137330972
1.1952275209
1.1920067881
1.1923000510
1.1784951057
1.1972688657
1.1812166056
1.1883580688
1.2039754432
1.1846535587
1.1778754243
1.2050183428
1.1886066420
1.1952129735
1.1847785458
1.1799417615
1.1938918178
1.1937390270
1.1905025534
1.1789810915
1.1901827959
1.1865030768
1.1828812435
1.1785921795
1.1776557413
1.1962782355
1.1866894746
1.1963901340
1.1829285177
1.2064050760
1.1736479712
1.2029158681
1.1993126087
1.2040681132
1.2131583892
1.2001491154
1.2076316065
1.2052676890
1.2087728011
1.2118865708
1.1756301324
1.1914754257
1.1980307603
1.1834024496
1.2075737376
1.2114935952
1.1734338636
1.2040933764
1.1893769787
1.2005335049
1.2052479418
1.1801037518
1.1791643002
1.1721378583
1.2150531805
1.2015352414
1.1986471002
1.2064426908
1.1942411189
1.1923810667
1.1877006819
1.2127599806
1.1851047883
1.1765217697
1.2102590993
1.1762925017
1.1866935599
1.1871819559
1.1782714899
1.2000854817
1.1795772880
1.1940803533
1.1960200703
1.1828822283
1.1769204041
1.2017271793
1.1831969323
1.2028367559
1.1937937691
1.1905141983
1.1910004477
1.1951629842
1.1760950948
1.1952131527
1.1886286301
1.1955039170
1.1769838108
1.1851768550
1.1963269781
1.1950813275
1.1949497396
1.1958780041
1.1926615223
1.1811153641
1.1957000379
1.1847643852
1.1958434458
1.1773698572
1.1813040371
1.1950572667
1.1922639528
1.1954247288
1.1891496637
1.1930115354
1.1821290783
1.1912509375
1.2039226906
1.1743399652
1.1782788415
1.2018303302
1.1812384650
1.1919462879
1.1941758792
1.1951325844
1.2062276198
1.1772715143
1.1726217410
1.1863160773
1.1745164568
1.2107571626
1.1784725277
1.1986184572
1.1896883833
1.1719886349
1.1828473762
1.1748558022
1.1873094795
1.1855842895
1.1756846424
1.1801229792
1.1753997036
1.1942528609
1.1911921008
1.1847246974
1.2050380177
1.1792364273
1.1922292149
1.2028609013
1.1902474302
1.1892512778
1.1842184521
1.1779994406
1.1825031661
1.1740796271
1.2127540042
1.1933895662
1.1997411254
1.1951341167
1.1712175575
1.1742998765
1.1871115649
1.1722829406
1.2090268588
1.1973958218
1.2014254670
1.1754255365
1.2007992782
1.1853125472
1.1883491045
1.1927091295
1.1958290043
1.2035184340
1.1767361940
1.1997494933
1.1813600501
1.1982273646
1.1951093298
1.1892848954
1.1715048860
1.1944160551
1.2081207320
1.1982095399
1.1964990118
1.1964756857
1.2024071710
1.1758594822
1.1754467540
1.1737627190
1.1795652762
1.1955146945
1.1873307883
1.1926798521
1.1913388396
1.1940605005
1.1710964537
1.2063238595
1.1963254520
1.1949965435
1.2005426696
1.1723415123
1.1832995585
1.1925989862
1.1822845928
1.1775787501
1.1938140365
1.1949492715
1.1958794438
1.1989857914
1.1910997770
1.2102176397
1.1953509019
1.1893906055
1.1955166772
1.1974134657
1.1847108642
1.1997498364
1.1943843053
1.2081156592
1.1823351270
1.1928754362
1.2065855738
1.1984427115
1.1974161222
1.1892556358
1.1912453286
1.1724629358
1.2000214310
1.1777232685
1.1853737353
1.1870602603
1.1952811142
1.1967974908
1.1801986459
1.2014244510
1.1848391059
1.2021273387
1.2035161028
1.1957862733
1.2063193142
1.2005421267
1.2102124127
1.1952819575
1.1964782496
1.1952909092
1.1917822141
1.2086917458
1.1936354709
1.1991594606
1.1907910762
1.1982295139
1.1945336060
1.1908262081
1.1715291540
1.1927029231
1.2010123241
1.1956476433
1.2048437582
1.1949411915
1.1961592336
1.1897415206
1.1760121900
1.1729642782
1.1973305613
1.1886675893
1.1743073771
1.2024056837
1.1959242198
1.1801209408
1.1989869839
1.1883510213
1.1871452208
1.1740959797
1.1978527222
1.1893171794
1.1798663685
1.1870812568
1.1919467182
1.2035279170
1.1945301459
1.1930778530
1.1847133859
1.1963243994
1.1969469915
1.1842185968
1.1822866663
1.1779986185
1.1914055536
1.1991440151
1.1754118014
1.1821273761
1.1902486694
1.1850326661
1.1745332448
1.1959865787
1.1933408012
1.1960036018
1.1877700296
1.1933898547
1.1961332782
1.2057336300
1.1711434157
1.1950417877
1.1957574730
1.1964526520
1.1724145729
1.1974786622
1.1863178737
1.1904787166
1.1945797277
1.1747408598
1.1782793401
1.1678713216
1.1934108171
1.2003097460
1.1767272952
1.1809925185
1.1930784723
1.1982056417
1.1871915955
1.2021259164
1.1978537725
1.1967996866
1.2000205625
1.1712657999
1.1938218278
1.2017453733
1.2065818128
1.1966285864
1.1789168276
1.1746784618
1.2048404735
1.1883707654
1.1945796304
1.1831812304
1.1903131384
1.1961613137
1.1984432158
1.1973323858
1.2010113914
1.1789253958
1.1730427716
1.1823191391
1.1894206058
1.2086876840
1.1934509576
1.1954448743
1.1963031786
1.1709364666
1.1789606925
1.1956482495
1.1920234522
1.1730961365
1.1818834459
1.1965870513
1.2019381415
1.1978254410
1.1809091977
1.1964003576
1.1960652298
1.1991586592
1.1813304424
1.1968294911
1.2042741983
1.1987434380
1.1847948503
1.1766750343
1.1718619525
1.1837886448
1.1720732969
1.1964624879
1.2000911563
1.1972263263
1.1715290425
1.1711283338
1.1957867700
1.1920137216
1.1953650637
1.1860984945
1.1789328941
1.1862182782
1.1883891742
1.1714643974
1.1724742381
1.1940751244
1.1928841450
1.1775832127
1.1914838481
1.1903265072
1.1843350310
1.1746894330
1.1717385213
1.1730805307
1.1897892583
1.1878210477
1.1808489910
1.1821039460
1.1855885038
1.1754886217
1.1737720417
1.1798663786
1.1775618314
1.1791732142
1.1725322341
1.1714769245
1.1766062337
1.1730395358
1.1754434469
1.1678705028
1.1716577876
1.1927027900
1.1719065492
1.1869830075
1.1886544200
1.1718590351
1.1809931629
1.1718247517
1.1712957472
1.1886653443
1.1712048178
1.1829649079
1.1728228323
1.1723552858
1.1712195808
1.1936639498
1.2165813178
1.2170683501
1.2170681489
1.2165814954
1.2184550260
1.2184010600
1.2186136399
1.2179143911
1.2169228627
1.2180097217
1.2169774428
1.2169247775
1.2181288528
1.2175247318
1.2177582986
1.2181621059
1.2179128109
1.2184532867
1.2172606785
1.2171378513
1.2184243290
1.2178556365
1.2164451774
1.2186913642
1.2159011748
1.2185448023
1.2178171353
1.2151473142
1.2187945519
1.2181252613
1.2159718070
1.2161019439
1.2179548000
1.2140396271
1.2152697691
1.2181582802
1.2190079950
1.2172580953
1.2184219378
1.2140794475
1.2156900397
1.2129133433
1.2171143962
1.2091254018
1.2186704737
1.2149019280
1.2135550422
1.2094926802
1.2185428503
1.2158989546
1.2158615010
1.2186992631
1.2188904198
1.2179532863
1.2151543467
1.2131503458
1.2148358668
1.2169319114
1.2159697673
1.2180846473
1.2152724086
1.2147656923
1.2095725884
1.2141297574
1.2140387264
1.2158477954
1.2177570090
1.2139405166
1.2105215176
1.2169960516
1.2154719019
1.2125207196
1.2103342543
1.2128075734
1.2156574851
1.2170506362
1.2091401222
1.2125421901
1.2156511248
1.2129149729
1.2142611124
1.2131433654
1.1945749706
1.1988234247
1.2147655278
1.2169295073
1.2156213185
1.2095852455
1.2155739618
1.2120044621
1.2133315299
1.2129971947
1.2149213729
1.1968275926
1.1984669946
1.2104398263
1.2171754637
1.2143633607
1.2125382661
1.2118636257
1.2109270070
1.2136479538
1.2056832356
1.2087787746
1.2142433286
1.2112373503
1.2109556916
1.2095065898
1.2115162879
1.2156535971
1.2084892110
1.2156472591
1.2117480096
1.2115435722
1.2099112745
1.2061481974
1.2078730470
1.2103480168
1.2120001209
1.2094878561
1.2164987187
1.2170463992
1.2113032566
1.2156179028
1.2129902071
1.2073306430
1.2104444067
1.2002744140
1.2120163835
1.1961531859
1.1947666574
1.2138281880
1.1988035578
1.2115591746
1.2070647528
1.1996934472
1.2093763553
1.1945540064
1.1964484049
1.2081839216
1.2099627425
1.2120064934
1.2065259727
1.2061330425
1.2098903254
1.2107104189
1.2087702257
1.2060561222
1.2100195263
1.2118554785
1.2164955075
1.2114652693
1.2137412919
1.2091539294
1.2109493155
1.2084841753
1.2115617205
1.2078132189
1.2082118114
1.2095173866
1.2071553191
1.2109178005
1.2092337954
1.2058683605
1.2118554345
1.2115265655
1.2057372506
1.2002619686
1.2136473665
1.2078432402
1.2093727196
1.2082307318
1.2120081156
1.2052066490
1.1974916825
1.2043128163
1.2013282059
1.2080985130
1.1887655082
1.1977936492
1.2146480453
1.2080881452
1.2068613670
1.2056512720
1.2100792695
1.1961392103
1.2030303953
1.1986723912
1.2073479369
1.1867797700
1.2078116194
1.2069588112
1.1907359033
1.2065190279
1.2082007795
1.2031031340
1.2114574292
1.2052129026
1.1923676422
1.2107008402
1.2072406152
1.2100260360
1.2009708982
1.2060650508
1.1925571108
1.2052860968
1.2091451267
1.2043022298
1.1867711899
1.2065343855
1.2068564281
1.2050351455
1.2019500958
1.2045955507
1.2146435876
1.2172794720
1.2100716083
1.2013264415
1.2074726135
1.2074709476
1.2032373626
1.1866985205
1.2049503553
1.2047627264
1.2130589887
1.1974866461
1.2180302275
1.2002713349
1.2082396611
1.2009600209
1.2027510681
1.1941665172
1.2162437521
1.1928679607
1.2028807223
1.1991257487
1.2048966993
1.2046174820
1.1905634423
1.1925098818
1.1886507030
1.2010524937
1.1949045619
1.2125476843
1.2010604087
1.2038885207
1.1923497983
1.1925114375
1.2040123428
1.1906504101
1.1939839070
1.2065293819
1.2172735793
1.2045771912
1.1969791663
1.2188952954
1.1971365415
1.2027156114
1.2180771155
1.2013833915
1.2033625566
1.1954137611
1.2194488451
1.2008165998
1.2162375272
1.1925010989
1.1989767822
1.1927315573
1.2156386075
1.2125433158
1.1991110077
1.2032215145
1.2191550090
1.1941526924
1.1953675755
1.2197560072
1.1936454230
1.2028659533
1.1995259033
1.1948880010
1.2022024731
1.2193454704
1.2037559301
1.1954596186
1.1907445946
1.1906391631
1.1969580182
1.2159980674
1.1942227744
1.1906846047
1.2016139463
1.2022139047
1.1939732784
1.1923476945
1.2186028445
1.1997347725
1.1948531174
1.2189563507
1.2150163875
1.1909149543
1.2034151776
1.2156336519
1.2197470525
1.2130413396
1.2188959786
1.2007966931
1.1868578584
1.2193379717
1.2194903362
1.1845389289
1.1976412372
1.1954099887
1.2196952286
1.1960454095
1.2119950527
1.2188666631
1.2027587706
1.1973004699
1.2191881640
1.2137103708
1.1979172558
1.1875828442
1.2195656323
1.1855196628
1.2016068851
1.2150890769
1.1942989371
1.1894434935
1.1972602507
1.1906696891
1.1923267212
1.1925254040
1.1862798833
1.2191353154
1.2167942975
1.2016907212
1.2189506252
1.1954573642
1.2159902196
1.1907375065
1.2037640853
1.1997275622
1.1889369461
1.1980133201
1.1942166423
1.1888774983
1.2177518899
1.1844992260
1.2196825771
1.1992750223
1.2188591415
1.2194813873
1.1884929734
1.1881962721
1.1850800070
1.2120475749
1.1863616246
1.2141031065
1.2187571041
1.1845356034
1.2191818844
1.1976456372
1.2190267021
1.2194312696
1.1902592137
1.1979108678
1.2108211381
1.1997725011
1.2131018475
1.1868531061
1.2197873171
1.2201995668
1.1902851782
1.1873046626
1.2167847252
1.1989713299
1.1894387072
1.2194046153
1.2191297809
1.1972660594
1.2205635529
1.1923209116
1.1862367119
1.2179701880
1.1980075671
1.2091798593
1.2004535395
1.1820868549
1.2107141820
1.2197782190
1.1884865082
1.1849519169
1.2190174792
1.1850738864
1.1997667451
1.1864168854
1.2204239738
1.1881906644
1.1992869561
1.2198219964
1.1835052363
1.1960259656
1.2189037278
1.1883781058
1.2074156013
1.1834299466
1.2199390936
1.1999858906
1.1821701336
1.2204365946
1.2211842087
1.2094625352
1.1831038200
1.1989815782
1.2199993723
1.2216245690
1.2193974060
1.2053366479
1.1821609431
1.1828667409
1.2181067983
1.2204144656
1.2198128200
1.2207563773
1.1834278882
1.1864143338
1.2183884873
1.1848538840
1.2078894688
1.1960192662
1.1819462782
1.2004659924
1.2209762110
1.2212307896
1.1832198782
1.2175950035
1.2030946414
1.2060519768
1.1823472335
1.1821608706
1.2215102786
1.1821514736
1.1831101438
1.1817560443
1.2012422812
1.2209733828
1.1836115404
1.2006813413
1.2172532455
1.2110180451
1.2162878847
1.2131454648
1.2039862493
1.2212214620
1.2011137395
1.2200215325
1.2086394465
1.2154322231
1.2180974720
1.2039257323
1.2205100630
1.2205031511
1.1848509770
1.2172218094
1.2193884599
1.2120935283
1.2143879713
1.2019982057
1.2098719988
1.2157738221
1.2056842185
1.2209671869
1.2200931679
1.2183797646
1.1820157313
1.1999124468
1.2017507622
1.1831038451
1.1884797936
1.2072559740
1.1817466592
1.1919954976
1.1980444567
1.1805792067
1.1847876221
1.1832897373
1.1954708526
1.1988399520
1.1866222672
1.1813413511
1.1902833675
1.1969478078
1.1800378623
1.1830862041
1.1816371762
1.1936562982
1.2052162578
1.2087944217
1.2134670450
1.2194772291
1.2063683646
1.2019356662
1.2154239752
1.2011154368
1.2162793778
1.2188424696
1.1993342746
1.2111091019
1.2153355822
1.2200124282
1.2099190302
1.2142818546
1.2122369547
1.2180434936
1.2069967132
1.2099560364
1.2137411398
1.2204945373
1.2076113517
1.2035405132
1.2167181181
1.2032354807
1.2001982016
1.2123343753
1.2178695501
1.2111230147
1.2143798832
1.2132723720
1.2193804229
1.1903972688
1.2050184532
1.1983178944
1.1963904970
1.1937349663
1.1901885126
1.1972712374
1.1830861865
1.1819551361
1.1789771375
1.1993205624
1.1806755210
1.1815023310
1.1865209461
1.1828869396
1.2085501575
1.1820113781
1.1867346990
1.1938598201
1.1921152696
1.1972706394
1.1952104933
1.1920052685
1.1883720497
1.1984477547
1.1849247275
1.1832882974
1.1784996804
1.1999123247
1.1810628707
1.1799343990
1.1846680941
1.1812738350
1.1885894794
1.1956713697
1.2064081665
1.2112842098
1.2162593520
1.2188337872
1.2131652855
1.2101083735
1.2030698419
1.1978269162
1.2087784740
1.1993349307
1.2123148613
1.2040695224
1.2001469014
1.2076644474
1.2134587555
1.2075778899
1.2115008061
1.2178621294
1.2159873336
1.2112432148
1.2047507956
1.1986445049
1.2100592494
1.2012604883
1.2123264684
1.2052502869
1.2015340047
1.2089245730
1.2147784583
1.1950580290
1.1920929422
1.1922617348
1.1792321113
1.1976524715
1.1811201592
1.1884332214
1.2028368621
1.1847538729
1.1812771495
1.1797371947
1.1773588880
1.1970090016
1.2062825683
1.1886318373
1.1954347439
1.1847786194
1.1802949595
1.1937931206
1.1938828685
1.1905127819
1.1795122394
1.1983178990
1.1795433603
1.1902752437
1.1865808537
1.1830277187
1.1782596067
1.1769177948
1.1960206324
1.1867034531
1.1966863427
1.1828947930
1.1815040754
1.1743283250
1.1896869548
1.1966449270
1.1812362350
1.2077673215
1.2112766192
1.1734289034
1.1746175261
1.2018312555
1.1907150147
1.1986154411
1.2053064751
1.1822977381
1.1772671371
1.1726953821
1.2141880865
1.2010759354
1.1978290483
1.2062316222
1.2039249346
1.2100902974
1.1930098086
1.1937578721
1.1855822227
1.2107629796
1.1867282680
1.1780352240
1.2088731597
1.1755175857
1.1911021279
1.1973924338
1.1829898801
1.2089408568
1.2126211147
1.1729725642
1.1735240884
1.2028626630
1.1888121006
1.1997393423
1.2065613956
1.1806036692
1.1788526654
1.1724487288
1.2159805134
1.2025644482
1.1995027860
1.2075421755
1.2050409036
1.2100522771
1.1939918564
1.1928642125
1.1872710812
1.2138044237
1.1845327234
1.1761777847
1.2090326846
1.1952600778
1.1758432262
1.1960200276
1.1866766984
1.1958335974
1.1781063018
1.1873310167
1.1786015134
1.1982114185
1.1960941207
1.1954926200
1.1795682509
1.1926800519
1.1953553907
1.1940607562
1.1795485178
1.1962758789
1.1957497458
1.1829158996
1.1956640565
1.1776544764
1.2007989372
1.1833075787
1.2039746004
1.1938921820
1.1905026530
1.1941839535
1.1910981485
1.1938145458
1.1754145667
1.1951088261
1.1886008618
1.1957564839
1.1767226904
1.1853169728
1.1797426394
1.2006676513
1.1984912023
1.1930830965
1.1779904699
1.1930757819
1.1955550672
1.1927086840
1.1812127469
1.1970107473
1.1950405777
1.1847624961
1.1958279613
1.1778816848
1.1813680153
1.1952257066
1.1923019837
1.1944163453
1.1892830057
1.1926924882
1.1770658682
1.1818891756
1.1766865798
1.1928738382
1.1907179394
1.1892532240
1.1862240360
1.2052647415
1.1743751060
1.1815458849
1.1781768482
1.1743622617
1.1937260728
1.2029138743
1.1808649327
1.1917386146
1.1937598047
1.1892765890
1.1949669431
1.1904473913
1.2076263927
1.1770464787
1.1727090377
1.1860290797
1.1760061320
1.1808634492
1.1801949127
1.1748618989
1.2118797980
1.1944598622
1.1780397476
1.1993154273
1.1942430569
1.1941742286
1.1715190063
1.1729552671
1.1892779082
1.1848362517
1.1720314258
1.1823008091
1.1746258423
1.1735071591
1.2088671173
1.1966480461
1.1867314064
1.1851529912
1.1726087355
1.1914775774
1.1751274244
1.1799398165
1.1784676470
1.1755561750
1.1936834197
1.1923826207
1.1905169220
1.1839039253
1.2064389720
1.1734432723
1.1799655117
1.1766770917
1.1929759449
1.2040907201
1.1791662426
1.1899960587
1.1948069770
1.1948055623
1.1884293440
1.2075367115
1.1756365822
1.1734457965
1.1839441427
1.1774502903
1.1818296507
1.1746619688
1.2137983239
1.1932429605
1.1873065671
1.1801068585
1.2005348275
1.1949686969
1.1712550886
1.1739547257
1.1877027706
1.1863955497
1.1715566417
1.1845347344
1.1761838141
1.1725978308
1.2102521590
1.1980343376
1.1888136595
1.1834043279
1.2026570914
1.1761001353
1.1767231821
1.1724080492
1.1779962018
1.2017266519
1.1964966479
1.1851689843
1.1930760957
1.1893159042
1.1880708624
1.1926606223
1.1958449183
1.1711361602
1.2062389825
1.1960915647
1.2049660202
1.1769973498
1.1936137916
1.2005819119
1.1730904351
1.1812953300
1.1934863419
1.1837627709
1.1755130713
1.1952609780
1.1950802458
1.1958378485
1.1958394745
1.1987601006
1.1952124356
1.1891495291
1.1712485807
1.1954250537
1.1957396034
1.2093556782
1.2000833482
1.1945293169
1.1905076774
1.1944553252
1.1923811912
1.1969076909
1.1938457280
1.1822764754
1.2037825336
1.1763049208
1.1747360911
1.1732329212
1.1795756488
1.1969970626
1.1871787079
1.1930824096
1.1904614659
1.1940788336
1.1957403209
1.1709289175
1.2076701938
1.1984891913
1.2048056929
1.1781140387
1.1933416156
1.2015890073
1.1718696368
1.1831862524
1.1944529320
1.1813369102
1.1768380855
1.1951624774
1.1954916999
1.1955558743
1.1951161994
1.1996480806
1.1960225019
1.1910006270
1.1710790007
1.1941838556
1.2113698424
1.2006647463
1.1960777134
1.1958156933
1.1884252310
1.1983104123
1.1934878109
1.1978650197
1.1837973311
1.1959858189
1.2062347299
1.2005814184
1.1937274660
1.2093500438
1.1815495229
1.1942545197
1.1958180252
1.1945109100
1.1922480410
1.1895322775
1.2052011188
1.1922090030
1.1727459810
1.1979169245
1.1885471249
1.1913062949
1.1978680655
1.1949652767
1.1885501570
1.1872722173
1.1904502401
1.1912414563
1.1770419298
1.1729895953
1.1943832699
1.1939939479
1.1727562499
1.1930947373
1.1990194958
1.1770714810
1.1788547463
1.1954189256
1.1886810398
1.1926904661
1.2033865731
1.1862275866
1.1851074979
1.1948032757
1.1956870148
1.1748475752
1.1953289834
1.1855921586
1.1736644345
1.1739590546
1.1928659717
1.1795732578
1.1716865521
1.1965671732
1.1899427272
1.1795778736
1.1755558017
1.2026556717
1.1958860575
1.1841342778
1.2006888252
1.2049631268
1.1765270759
1.1958377416
1.2076648289
1.2015877869
1.1948796145
1.2113644426
1.1839064294
1.1948045677
1.1870576434
1.1969107618
1.1951231427
1.1911949268
1.1901677368
1.2074108674
1.1928838297
1.1984122398
1.1872722861
1.1987621705
1.1941027902
1.1912487655
1.1871147266
1.1922299789
1.1886587634
1.1721507121
1.1777186497
1.1720421067
1.1915599631
1.1997610587
1.1792398373
1.1960440517
1.1832466279
1.2033547234
1.1884311812
1.1716775597
1.1948788173
1.1954753367
1.1958889864
1.1869846862
1.1751333450
1.1722915853
1.1970737760
1.1854176148
1.1780044086
1.1735146424
1.2037807021
1.1961613032
1.1825064791
1.2018655807
1.2048022274
1.1799367338
1.1996488277