<VTKFile type="UnstructuredGrid" version="0.1">
	<UnstructuredGrid>
		<Piece NumberOfPoints="1862" NumberOfCells="3498">
			<CellData>
				<DataArray type="Int32" Name="type" NumberOfComponents="1" Format="ascii">
0
0
0
0
0
0
0
0
0
0
0
0
0
0
0
0
1
0
0
1
0
0
0
0
0
0
0
0
0
0
0
0
0
1
0
0
0
0
0
0
0
0
0
0
0
0
0
0
0
0
1
0
0
0
0
0
0
0
0
0
0
1
0
0
0
0
0
0
0
0
0
0
0
0
0
0
0
0
0
0
0
0
0
0
0
0
0
0
0
0
0
0
0
0
0
0
0
0
0
0
0
0
0
0
0
0
0
0
0
0
0
0
0
0
0
0
0
0
0
0
0
0
0
1
0
0
0
0
0
0
0
0
0
0
0
0
0
0
0
0
0
0
0
0
0
0
0
0
0
0
0
1
0
1
1
0
0
0
0
0
0
0
0
0
0
0
0
0
1
0
1
0
0
0
0
1
0
0
0
0
0
0
0
0
1
1
0
0
0
0
0
1
0
0
0
0
0
0
0
0
1
0
0
0
0
0
0
0
0
0
0
0
0
0
0
0
0
0
0
0
0
0
0
0
0
0
0
0
0
0
0
0
0
1
0
0
0
0
0
0
0
0
0
0
0
0
0
0
0
0
0
0
0
0
0
0
0
0
0
0
0
0
0
0
0
0
0
0
0
0
0
0
0
0
0
0
0
0
0
0
0
1
0
0
0
0
0
0
0
0
0
0
0
0
0
0
0
0
0
0
0
0
0
0
0
0
0
0
0
0
0
0
0
0
0
0
0
0
0
0
0
0
0
0
0
0
0
0
0
0
0
0
1
0
0
0
0
0
0
0
0
0
0
0
0
0
0
0
0
0
0
0
0
0
0
0
0
0
0
0
0
0
0
0
0
0
0
0
0
0
0
0
0
0
0
0
0
0
0
0
0
0
0
0
0
0
0
0
0
0
1
0
0
0
0
0
0
0
0
0
0
0
0
0
0
0
0
0
0
0
0
0
0
0
0
0
0
0
0
0
0
0
0
0
0
0
0
0
0
0
0
0
0
0
0
0
0
0
0
0
0
0
0
0
0
0
0
0
0
0
0
0
0
0
0
0
0
0
0
0
0
0
0
0
0
0
0
0
0
0
0
0
0
0
0
0
0
0
0
0
0
0
0
0
0
0
0
0
0
0
0
0
0
0
0
0
0
0
0
0
0
0
0
0
0
0
0
0
0
0
0
0
0
0
0
0
0
0
0
0
0
0
0
1
0
0
0
0
0
0
0
0
0
0
0
0
0
0
0
0
0
0
0
1
0
0
0
0
0
0
0
0
0
0
0
0
0
0
0
0
0
0
0
0
0
0
0
0
0
0
0
0
0
0
0
0
0
0
0
0
0
0
0
0
0
0
0
0
0
0
0
0
0
0
0
0
0
1
0
0
0
0
0
0
0
0
0
0
0
0
0
0
0
0
0
0
0
0
0
0
0
1
0
0
0
0
0
0
0
0
0
0
0
0
0
0
0
0
0
0
0
1
0
0
0
1
0
0
0
0
0
0
0
0
0
0
0
0
0
0
0
0
0
0
0
0
0
0
0
0
0
1
0
0
0
0
0
0
0
1
0
0
0
0
0
0
0
0
0
0
0
0
0
0
0
0
0
0
0
0
0
0
0
0
0
0
1
0
0
0
0
0
0
0
1
0
0
0
0
0
0
1
0
0
0
0
0
0
0
0
0
0
0
0
0
0
0
0
0
0
0
0
0
0
0
0
0
0
0
0
0
0
0
0
0
0
0
0
0
0
1
0
0
0
0
0
1
0
0
0
0
0
0
0
1
0
0
0
0
0
0
0
0
0
0
0
0
0
1
0
0
0
0
0
0
0
0
0
0
0
0
0
0
0
0
0
0
0
0
0
0
0
0
0
0
0
0
0
0
0
0
0
0
0
0
0
0
0
0
0
0
0
0
0
0
0
0
0
0
0
0
0
1
0
0
0
0
0
0
0
0
0
0
0
0
0
0
0
0
0
0
0
1
0
0
0
0
0
0
0
0
0
1
0
0
0
0
0
0
0
0
0
0
0
0
0
0
0
0
0
0
0
0
0
0
0
0
0
0
0
0
0
1
0
1
0
0
0
0
0
0
0
0
0
0
0
0
0
0
0
0
0
0
0
0
0
0
0
0
0
0
0
1
0
0
0
1
0
0
0
0
0
0
0
0
0
0
0
0
0
0
0
0
0
0
0
0
0
0
0
0
0
0
0
0
1
0
0
0
0
0
0
0
0
0
0
0
0
0
0
0
0
0
0
0
0
0
0
0
0
0
1
0
0
0
0
0
0
0
0
0
0
0
0
0
0
0
0
0
0
0
0
0
0
0
1
0
0
0
0
0
0
1
0
0
0
0
0
0
0
0
0
0
0
1
0
0
0
0
0
0
0
0
0
0
0
0
0
0
0
0
0
0
0
0
1
0
0
0
0
0
0
0
0
0
0
0
1
0
0
0
0
0
0
0
0
0
0
0
0
0
0
0
0
0
0
0
0
0
1
0
0
0
0
0
0
0
0
0
1
1
0
1
0
1
0
0
0
0
0
0
0
0
0
0
0
1
0
0
0
0
0
1
1
0
0
0
0
0
0
1
0
0
0
0
0
1
1
1
0
0
0
0
0
0
0
0
0
0
0
0
1
1
0
0
1
0
0
0
0
0
1
0
0
0
1
0
1
0
0
0
0
0
0
0
1
0
0
0
0
0
0
0
1
0
0
1
0
0
0
0
0
0
0
0
0
0
0
0
0
0
0
1
0
0
0
0
0
0
0
0
0
0
0
0
0
0
0
0
0
0
0
0
0
0
0
0
0
0
0
0
0
0
0
0
0
0
0
0
1
0
0
0
0
0
0
1
0
0
0
1
0
0
0
0
0
0
0
0
0
0
0
1
0
0
0
0
0
0
0
0
0
0
0
0
0
0
0
0
0
0
0
0
0
0
0
0
0
0
0
0
0
0
0
0
0
0
0
0
0
0
0
0
1
1
0
0
0
0
0
0
0
0
0
0
0
0
0
1
0
0
0
0
0
0
0
0
0
0
0
0
0
0
0
0
0
0
0
0
0
0
0
0
0
0
0
0
0
0
0
0
0
0
0
0
0
0
0
0
0
0
0
0
0
0
0
0
0
0
0
0
0
0
0
0
0
0
0
0
0
0
0
0
0
0
0
0
0
0
0
0
1
1
0
0
0
0
0
0
0
0
1
0
0
0
0
0
0
0
0
0
0
0
0
0
0
0
0
0
0
0
0
0
0
0
1
0
0
0
0
0
0
0
0
0
0
0
0
0
0
0
0
1
0
0
0
0
0
0
0
0
0
0
0
0
0
0
0
0
0
0
0
0
0
0
0
0
0
0
0
0
0
0
0
0
0
0
0
0
0
0
0
0
0
0
0
0
0
0
0
0
0
0
0
0
0
0
0
0
0
0
0
0
0
0
0
0
0
0
0
0
0
0
0
0
0
0
0
0
0
0
0
0
0
0
0
0
0
0
0
0
0
0
1
1
0
0
0
0
0
1
0
0
0
0
0
0
0
0
0
0
0
0
1
0
0
0
0
0
0
0
0
0
0
0
0
0
0
0
0
0
0
0
0
0
0
0
0
0
0
0
0
0
0
0
0
0
0
0
0
0
0
0
0
0
0
0
0
0
0
0
0
0
0
0
0
0
1
0
1
0
0
0
0
0
0
0
0
0
0
0
0
0
0
0
0
0
0
1
0
0
0
0
0
0
0
0
0
0
0
0
0
0
0
0
0
0
0
0
0
0
0
0
0
0
0
0
0
0
0
0
0
0
0
0
0
0
0
0
0
0
0
0
0
0
0
0
0
0
0
0
0
0
0
0
0
0
0
0
0
0
0
0
0
0
0
0
0
0
1
0
0
0
0
0
0
0
0
0
0
1
0
0
0
0
0
0
0
0
0
0
0
0
0
0
0
0
0
0
0
0
0
0
0
0
0
0
0
0
0
0
0
0
0
0
0
0
0
1
0
0
0
0
0
0
0
0
0
0
0
0
0
0
0
0
0
0
0
0
0
0
0
0
0
0
0
0
0
0
0
0
0
0
0
0
0
0
0
0
0
0
0
0
0
0
0
0
0
0
0
0
0
0
0
0
0
0
0
0
0
0
0
0
0
0
0
0
0
0
0
0
0
0
0
0
0
0
0
0
0
1
0
0
0
0
0
0
0
0
0
0
0
0
0
0
0
0
0
0
0
0
0
0
0
0
0
0
0
0
0
0
0
0
0
0
0
0
0
0
0
0
0
0
0
0
0
0
0
0
0
0
0
0
0
0
0
0
0
0
0
0
0
0
0
0
0
0
0
0
0
0
0
0
0
0
0
0
0
0
0
0
0
0
0
0
0
0
0
0
0
0
0
0
0
0
0
0
0
0
0
0
0
0
0
0
0
0
0
0
0
0
0
0
0
0
0
0
0
0
0
0
0
0
0
1
0
0
0
0
0
0
0
0
0
0
0
0
0
0
0
0
0
0
0
0
0
0
0
0
0
0
0
0
0
0
0
0
0
0
0
0
0
0
0
0
0
0
0
0
0
0
0
0
0
0
0
0
0
0
0
0
0
0
0
0
0
0
0
0
0
0
0
0
0
0
0
0
0
0
0
0
0
0
0
0
0
1
0
0
0
0
0
0
0
1
0
0
0
0
0
0
0
0
0
0
0
0
0
0
0
0
0
0
0
0
0
0
0
0
0
0
0
0
0
0
0
0
0
0
0
0
0
1
0
0
0
0
0
0
0
0
0
0
0
0
0
0
0
0
0
0
0
0
0
1
0
0
0
0
0
0
0
0
0
0
0
0
1
1
0
0
0
0
0
0
0
0
0
0
0
0
0
0
0
1
1
0
1
0
0
0
0
0
0
0
0
0
1
0
0
0
0
0
0
1
0
0
0
0
0
0
0
0
0
0
1
0
0
0
0
1
0
1
0
0
0
0
0
0
0
1
0
0
0
1
0
0
0
1
0
1
1
0
0
1
1
0
0
0
1
0
0
0
1
0
0
0
0
0
0
0
0
0
1
0
0
0
0
0
0
1
0
0
0
0
0
0
0
0
0
0
0
0
0
0
0
0
0
0
0
0
0
0
0
0
0
0
0
1
0
0
1
0
0
0
0
0
0
0
0
0
0
0
0
0
0
0
0
0
0
1
0
0
1
0
0
0
0
0
0
0
0
0
0
0
1
0
0
1
0
0
0
0
0
0
0
0
0
0
0
1
1
0
0
0
0
0
0
0
0
0
0
0
0
1
0
0
0
0
0
0
0
0
0
0
0
0
0
0
0
0
0
1
0
0
0
0
0
0
0
0
0
0
0
0
0
0
0
0
0
1
0
0
0
0
0
0
0
0
0
0
0
0
0
0
0
0
0
0
0
0
0
0
0
0
0
0
0
0
0
0
0
0
0
0
0
0
0
0
0
0
1
0
0
0
0
0
0
0
0
0
0
0
0
0
0
0
0
0
0
0
0
0
0
0
0
0
0
0
0
0
0
0
0
0
0
0
0
0
0
0
0
0
0
0
0
0
1
0
0
0
0
0
0
0
0
0
0
0
0
0
0
0
0
0
0
0
0
0
0
0
0
0
0
0
0
0
0
0
0
0
0
0
0
0
0
0
0
0
0
0
0
0
0
0
1
0
0
0
0
0
0
0
0
0
0
1
0
0
0
0
0
0
0
0
0
0
0
0
0
0
0
1
0
0
1
0
0
0
0
0
0
0
0
0
0
0
0
0
0
0
0
0
0
0
0
0
0
0
1
0
0
0
0
0
0
0
0
0
0
0
0
0
0
0
0
0
0
0
0
0
0
0
0
0
0
0
0
0
0
0
0
0
0
0
1
0
0
0
0
0
0
0
0
0
0
0
0
0
0
0
0
0
0
0
0
0
0
0
0
0
0
0
0
0
0
0
0
0
0
0
0
0
0
0
0
0
0
0
0
0
0
0
0
0
0
0
0
0
0
0
0
0
0
0
0
0
0
0
0
0
0
0
0
0
0
0
0
0
0
0
0
1
0
0
0
0
0
0
0
0
0
0
0
0
0
0
0
0
0
0
0
0
0
0
0
0
0
0
0
0
0
0
0
0
0
0
0
0
0
0
0
1
0
0
0
0
0
0
0
0
0
0
0
0
1
1
0
0
0
0
0
0
0
0
0
0
0
0
0
0
0
0
0
0
0
0
0
0
0
0
0
0
0
0
0
0
0
0
0
0
0
0
0
0
0
0
0
0
0
0
0
0
0
0
0
0
0
0
0
0
0
0
0
0
0
0
0
0
0
0
0
0
0
0
0
0
0
0
0
0
0
0
0
0
0
0
0
0
0
0
0
0
0
0
0
0
0
0
0
0
0
0
0
0
0
0
0
1
0
1
0
0
0
0
0
0
0
1
1
1
1
0
0
0
0
0
0
0
0
0
0
0
0
0
0
0
0
0
0
0
0
0
0
0
0
0
0
0
0
1
1
0
0
0
0
0
0
0
0
0
0
0
0
0
0
0
0
0
0
1
0
0
0
0
0
0
0
1
1
0
1
1
0
0
1
0
0
0
0
0
0
0
1
0
1
0
0
0
0
0
0
0
0
0
0
0
0
0
0
0
0
0
0
0
0
0
0
0
0
0
0
0
1
1
0
0
0
1
1
0
0
0
0
1
0
0
1
0
1
0
0
0
0
0
1
0
0
0
1
0
0
0
0
0
0
0
0
0
0
0
0
0
0
0
0
0
0
0
0
0
0
0
0
0
0
0
1
0
0
0
0
0
0
1
0
0
0
0
0
0
0
0
0
0
0
0
0
0
0
0
0
0
0
0
0
0
0
0
0
0
0
0
0
1
0
1
0
0
0
0
0
0
0
1
0
0
0
0
0
0
0
0
0
0
0
1
0
0
0
0
0
0
0
0
0
1
0
0
0
0
0
0
0
1
0
0
0
0
0
0
0
1
0
0
0
0
0
0
0
0
0
0
0
0
0
0
0
0
0
0
0
1
0
1
0
0
0
0
0
1
0
0
0
0
0
0
0
0
0
0
0
0
0
0
0
0
0
0
0
0
0
0
0
0
0
1
0
1
0
0
0
0
0
0
0
0
0
1
0
0
0
0
0
1
0
0
0
0
0
0
0
0
0
0
0
0
0
0
0
1
0
0
0
0
0
0
0
0
1
0
0
0
0
0
0
0
0
0
0
0
0
0
0
0
0
0
0
0
0
0
0
0
0
0
0
0
0
0
0
1
0
0
0
0
0
0
0
0
0
0
0
0
0
0
0
0
1
0
0
0
0
0
0
0
0
1
0
0
0
0
0
0
0
0
0
1
0
0
0
0
0
1
0
0
0
0
0
0
0
0
0
0
0
0
0
0
0
0
0
0
0
1
0
0
0
0
0
0
1
0
0
0
0
0
0
0
0
1
0
0
0
0
0
0
0
0
0
0
0
0
0
0
1
0
0
1
0
0
0
1
0
0
0
0
0
0
0
0
0
0
0
0
0
0
0
0
1
0
0
0
0
0
0
0
0
0
0
1
0
1
0
0
0
0
0
0
1
0
0
0
0
0
0
0
0
0
0
0
0
0
0
0
0
0
0
0
0
0
0
0
0
0
0
0
1
1
0
0
0
0
0
0
1
0
0
0
0
0
0
0
0
0
0
0
0
0
1
0
0
0
0
0
0
0
1
0
0
0
0
0
0
0
0
0
0
0
0
0
0
0
0
0
0
0
0
0
0
0
0
0
0
0
1
0
0
0
0
0
0
0
0
0
0
1
0
0
1
0
0
0
0
0
0
0
0
0
0
0
0
0
0
0
0
0
0
0
0
0
0
0
0
0
0
0
0
0
1
0
0
0
0
0
0
0
1
0
0
0
0
0
0
0
1
0
0
0
0
1
0
0
0
0
0
0
0
0
0
0
0
1
0
1
0
0
0
1
0
				</DataArray>
				<DataArray type="Float64" Name="h" NumberOfComponents="1" Format="ascii">
1.1796583974
1.1796802224
1.1720523165
1.1765165709
1.1721193127
1.1736157151
1.1747235366
1.1806131379
1.1770336319
1.1852931074
1.1787766760
1.1736719448
1.1828373136
1.1805129359
1.1813535899
1.1876469867
1.1745568489
1.1850910497
1.1810977012
1.1781916381
1.1702243618
1.1833856444
1.1776615661
1.1704382684
1.1765054725
1.1899927129
1.1814602115
1.1720198611
1.1740788062
1.1825337368
1.1801657830
1.1763211324
1.1846159244
1.1718143888
1.1656272961
1.1706842293
1.1677691644
1.1781744248
1.1731527215
1.1694800716
1.1727319139
1.1695670542
1.1802161380
1.1747237561
1.1694826118
1.1721608717
1.1767476284
1.1656441118
1.1676571210
1.1688324878
1.1691924014
1.1714688699
1.1733950602
1.1670529661
1.1685895141
1.1803668679
1.1711436575
1.1638434273
1.1643857596
1.1657961310
1.1625258047
1.1629816642
1.1663503524
1.1702149732
1.1739599078
1.1704978118
1.1699567558
1.1676191447
1.1630860265
1.1635493515
1.1635252608
1.1676625818
1.1786469510
1.1663885568
1.1649974567
1.1739209789
1.1642045977
1.1632459293
1.1640655639
1.1732938325
1.1618694872
1.1697101390
1.1678236587
1.1688885507
1.1748957175
1.1726383466
1.1620308411
1.1700902315
1.1641586898
1.1693290852
1.1629234617
1.1732145968
1.1624274394
1.1706292975
1.1711724713
1.1716880708
1.1718375703
1.1742852146
1.1722467133
1.1622902753
1.1678848121
1.1622294525
1.1696911327
1.1645675447
1.1903038789
1.1711280264
1.1727684820
1.1676844883
1.1639562031
1.1701475040
1.1704295548
1.1692659140
1.1633904001
1.1641666305
1.1681702138
1.1621953401
1.1687321792
1.1873114537
1.1639174658
1.1667758290
1.1886046842
1.1707531161
1.1737386696
1.1894548404
1.1645547920
1.1664088659
1.1671892880
1.1915034686
1.1614604085
1.1630735688
1.1623823959
1.1717931176
1.1658246173
1.1610095791
1.1863732160
1.1632281885
1.1927903765
1.1611689056
1.1618071025
1.1873013514
1.1937468359
1.1875545180
1.1616400334
1.1843146762
1.1729812624
1.1620100855
1.1903146563
1.1623879765
1.1897385892
1.1611728731
1.1937131017
1.1606312798
1.1606274571
1.1595631194
1.1618318924
1.1617871098
1.1603178820
1.1920456080
1.1605751328
1.1954480740
1.1859459170
1.1617068771
1.1914451974
1.1940425978
1.1923469801
1.1635203521
1.1813795270
1.1889657619
1.1919457283
1.1610975675
1.1604168462
1.1941127904
1.1598496279
1.1934766312
1.1802630506
1.1593020107
1.1829877253
1.1644570986
1.1596655960
1.1952146778
1.1628117345
1.1780130765
1.1964394290
1.1743292822
1.1953647024
1.1944028672
1.1788487750
1.1598923306
1.1927162046
1.1940133612
1.1763313103
1.1598015426
1.1964463799
1.1768355651
1.1594099037
1.1647623344
1.1961745712
1.1753169254
1.1753760315
1.1611117072
1.1940141714
1.1743149520
1.1943586865
1.1602264494
1.1751019410
1.1993189869
1.1896718667
1.1946892870
1.1747204630
1.1836750692
1.1768000095
1.1952056631
1.1975034380
1.2004292729
1.1924156472
1.1757352452
1.1866561183
1.1982715739
1.1785795708
1.1981017726
1.1749139382
1.1723613552
1.1809139682
1.1740617071
1.1753288147
1.1641080932
1.1695785752
1.1746453557
1.1757152475
1.1711002275
1.1617304280
1.1733457869
1.1749647696
1.1622530650
1.1659973935
1.1744600859
1.1764169423
1.1884811358
1.1987812035
1.1825275012
1.1765887486
1.1941282036
1.1999337028
1.1822402997
1.1935249467
1.1880876199
1.1994489556
1.1777509776
1.1914695205
1.1984169095
1.1854258110
1.1779427955
1.1978975598
1.1758405760
1.1760339781
1.2012658579
1.1850826249
1.1909960457
1.2004162477
1.1745982104
1.1799746755
1.1770954089
1.1769793857
1.1767785140
1.1756482077
1.1676232612
1.1672512812
1.1761394112
1.1633768635
1.1756284785
1.1731391080
1.1797386790
1.1726589671
1.1750579068
1.1750537523
1.1771332915
1.1770487999
1.1768861860
1.1763716491
1.1758996948
1.1712351076
1.1649649125
1.1655595807
1.1694261674
1.1745517328
1.1737826446
1.1753419317
1.1865809104
1.1996751029
1.1997697691
1.1866416295
1.1764200663
1.1926942880
1.1925930872
1.1808525137
1.1763107695
1.1810287477
1.1897048917
1.1977746819
1.2012539835
1.2012301619
1.1896891841
1.1772619883
1.1763625599
1.1763705585
1.1835599619
1.1770871950
1.1836875739
1.1976420823
1.1788957695
1.1776219472
1.1793565975
1.1665101041
1.1774343874
1.1768901723
1.1774800055
1.1786375962
1.1761026962
1.1709995167
1.1788352650
1.1795638706
1.1776054033
1.1789602533
1.1712838473
1.1791456824
1.1776311812
1.1795032491
1.1690288791
1.1776221134
1.1769794800
1.1748538527
1.1732937446
1.1684491844
1.1786104311
1.1794281812
1.1775402683
1.1781192850
1.1845283862
1.1840055020
1.1787401152
1.1760955324
1.1794058760
1.1990716748
1.1764295307
1.1903020198
1.1839407248
1.1907244565
1.1986962698
1.1888914205
1.1858541906
1.1768219807
1.1892393312
1.1875931744
1.1965527191
1.1900003629
1.1810911385
1.1890107151
1.1761679258
1.1817397466
1.1917489030
1.1898025281
1.1883745944
1.2012196192
1.1766665675
1.1769703170
1.1870885155
1.1837197633
1.1863923087
1.1877601572
1.2002527241
1.1910891183
1.1929165650
1.1961958735
1.1751624783
1.1804296771
1.1824134361
1.1752708741
1.1825961615
1.1807207391
1.1807428164
1.1788332910
1.1795960811
1.1703352341
1.1770625265
1.1822943476
1.1776771415
1.1796210701
1.1802001133
1.1817382318
1.1697138138
1.1725203458
1.1801697268
1.1803898282
1.1823685230
1.1774319728
1.1824996623
1.1759068680
1.1694420023
1.1685642048
1.1766491825
1.1812648384
1.1785804982
1.1739265403
1.1801994837
1.1795052075
1.1729950152
1.1817150489
1.1792587102
1.1799375542
1.1715365256
1.1821353590
1.1848241643
1.1866115763
1.1878626746
1.1817784740
1.1877371908
1.1860103123
1.1775090797
1.1896685635
1.1837730730
1.1853875088
1.1824926487
1.1879196640
1.1895650076
1.1902949347
1.1859323538
1.1816546147
1.1974997266
1.1929068482
1.1765481448
1.1868405546
1.1925218898
1.1919296912
1.1925223345
1.1901001114
1.1885795144
1.1987832343
1.1865080735
1.1836146954
1.1868601687
1.1896797286
1.1954360037
1.1847040455
1.1970313476
1.1894981624
1.1793288082
1.1845731624
1.1926956374
1.1863931450
1.1957649644
1.1944033930
1.1791813070
1.2002432443
1.1829233117
1.1761007911
1.1824949191
1.1967234265
1.1958729601
1.1922459356
1.1973466190
1.1944597303
1.1777085324
1.1785367273
1.1746338909
1.1764174516
1.1834290167
1.1853054027
1.1816859460
1.1793326930
1.1842129650
1.1794301344
1.1755415051
1.1830823041
1.1757063764
1.1803570489
1.1827700898
1.2011759726
1.1700024552
1.1948179185
1.1787666940
1.1744859239
1.1786492226
1.1811070441
1.1772660861
1.2032504223
1.2015627792
1.1823261522
1.1713606074
1.1831812318
1.1646604902
1.1923138103
1.1810584687
1.2035211845
1.1912532290
1.1758959991
1.1686759635
1.1766527505
1.2040888596
1.1834260942
1.1668507991
1.1999371835
1.2005515371
1.1675610122
1.1685592296
1.1766494045
1.1752418411
1.1822599400
1.1982075645
1.1809012109
1.1948622145
1.1713711350
1.1768775076
1.1971263054
1.1755379931
1.1879836990
1.1948075943
1.1966076632
1.1883040187
1.1932619313
1.1740416667
1.1768784052
1.1909988144
1.1911961181
1.1862063486
1.1768170211
1.1983290833
1.1544434563
1.1941207529
1.1852854143
1.1763922456
1.1952124695
1.1785309260
1.1933982491
1.1826241955
1.1842048502
1.1784475712
1.1912426287
1.1766477851
1.1981983332
1.1852856435
1.1786512061
1.1750995210
1.1626354245
1.1966310056
1.1681744454
1.1749695821
1.1654147862
1.1757058701
1.1715994423
1.1608530906
1.1963615317
1.1651058771
1.1794389732
1.1842726005
1.1897167454
1.1867468255
1.1784722734
1.1596471517
1.1960047939
1.1953158347
1.1748647735
1.1590729718
1.1958742571
1.1811003624
1.1815157673
1.1865064302
1.1752396020
1.1853040425
1.1966965372
1.1791946065
1.1740374583
1.1940125678
1.1996261982
1.1956245984
1.1837760259
1.1886392985
1.1820056421
1.1905152762
1.1971274072
1.1748176526
1.1719005710
1.1863874346
1.1999382471
1.1410963139
1.1929039540
1.1774891985
1.1836256758
1.1866065120
1.1845745391
1.1503302874
1.1816692754
1.1787131955
1.1659150367
1.1820342343
1.1549411863
1.1829264936
1.1770907343
1.1926644651
1.2028495868
1.1729585133
1.1824005544
1.1730625035
1.2015672888
1.1727970812
1.1859279919
1.1605202856
1.1726264635
1.2027458152
1.1860128214
1.1256192349
1.1686599015
1.1808815378
1.2020251121
1.1443523733
1.1905159836
1.1747155843
1.1972584918
1.1826167429
1.1740354499
1.1763927623
1.1768109062
1.1948269933
1.1890034691
1.1846601781
1.1932527396
1.1720364639
1.1418772329
1.2059329195
1.1897071458
1.1563989939
1.1726255244
1.1477576638
1.1606217325
1.1784736096
1.1740386629
1.1748642851
1.1794324748
1.2033841159
1.2067888961
1.2009491988
1.1951538945
1.1966227927
1.1689441549
1.1762397182
1.1759642757
1.2020161763
1.2010290129
1.1842729409
1.1645431993
1.2031549184
1.1479583475
1.1715374581
1.1855489453
1.1746362249
1.1492820049
1.1738719195
1.1784206765
1.1749639762
1.2017287644
1.1716286046
1.1902612303
1.1775249525
1.1991977388
1.2047922510
1.2073385179
1.1998482791
1.1328261069
1.1723346475
1.1812208865
1.1726418290
1.2063735448
1.2073821296
1.1784469010
1.1648759884
1.1758034784
1.1522372941
1.2038690896
1.1522805690
1.1560508653
1.2107989275
1.2089826469
1.1700959815
1.1667722263
1.2052637617
1.1630965211
1.1604876772
1.1500557860
1.2073227279
1.2097104492
1.2086282049
1.1590373407
1.1551704848
1.1456041290
1.1460040023
1.1511558933
1.2067612364
1.2084697418
1.2024961058
1.2047736098
1.1467907185
1.2099204572
1.2113086590
1.1383731929
1.2067884325
1.2048722508
1.1256204829
1.2122556132
1.1651036313
1.2087227248
1.1546805500
1.1569677642
1.2121419690
1.1443532424
1.2106643095
1.2093362811
1.1590599490
1.2075502537
1.1498428119
1.1333662069
1.2061746978
1.2062277034
1.1708820365
1.1771446504
1.1759412512
1.1759579853
1.1771674306
1.1755881806
1.1736663387
1.1787704971
1.1785826066
1.1735968212
1.1736048824
1.1721285653
1.1736136752
1.1770449219
1.1813410079
1.1747128939
1.1828292690
1.1785933791
1.1755957635
1.1836220476
1.1850863306
1.1765219282
1.1720591048
1.1810725462
1.1825326935
1.1865388871
1.1731819187
1.1806220779
1.1899939844
1.1765025137
1.1852950802
1.1845146449
1.1828538967
1.1709769183
1.1864648493
1.1798412035
1.1828327348
1.1801665990
1.1836340249
1.1718108061
1.1845990891
1.1762912686
1.1833352739
1.1694757557
1.1737008421
1.1745573112
1.1876526209
1.1801861309
1.1731295523
1.1731851522
1.1865452284
1.1727139791
1.1805140213
1.1781894051
1.1709819328
1.1776953896
1.1655658705
1.1834059379
1.1682487443
1.1845314460
1.1702275826
1.1798722732
1.1812941810
1.1705317780
1.1656416402
1.1864736060
1.1694754060
1.1691883854
1.1767105727
1.1720454088
1.1704446761
1.1741045856
1.1711225391
1.1751883445
1.1814832458
1.1668475776
1.1874043789
1.1737219829
1.1686445469
1.1659484898
1.1833530586
1.1733669066
1.1655682616
1.1689094960
1.1665063866
1.1813233301
1.1682522359
1.1679932627
1.1705535265
1.1706960619
1.1739273504
1.1782072503
1.1658788998
1.1656297516
1.1663412342
1.1676025707
1.1695762297
1.1677719101
1.1702023348
1.1686535473
1.1646729543
1.1650571096
1.1747577673
1.1663781276
1.1665494971
1.1676572023
1.1786256237
1.1632850021
1.1764769596
1.1755671130
1.1668505791
1.1628099462
1.1659511879
1.1695824249
1.1642016468
1.1635226268
1.1654697625
1.1649908033
1.1752126667
1.1773091493
1.1630832785
1.1668683468
1.1874066501
1.1635456977
1.1679986571
1.1658815936
1.1715773478
1.1695927753
1.1677802971
1.1666606279
1.1700425613
1.1676704325
1.1714892411
1.1665183148
1.1721882965
1.1696964075
1.1688711985
1.1684177157
1.1689266067
1.1688497725
1.1625288913
1.1629852757
1.1773394061
1.1625108093
1.1654779109
1.1643893384
1.1654807565
1.1665560103
1.1747522144
1.1778716030
1.1646751055
1.1668713122
1.1672726117
1.1685979931
1.1633490594
1.1632876576
1.1628142334
1.1803866851
1.1687280831
1.1643079067
1.1764910707
1.1670596222
1.1650604251
1.1658011166
1.1732062690
1.1638462669
1.1755952158
1.1624240916
1.1677960313
1.1645644510
1.1722271059
1.1684266574
1.1760786142
1.1666645251
1.1622252568
1.1712783612
1.1628680782
1.1691524611
1.1705172135
1.1678721830
1.1699736672
1.1647513603
1.1742707952
1.1623080414
1.1716748319
1.1675521648
1.1700608947
1.1622870506
1.1711147015
1.1715940244
1.1663363583
1.1687376747
1.1639515870
1.1692455340
1.1625145247
1.1643131103
1.1633849708
1.1672777808
1.1739189510
1.1716992532
1.1654841991
1.1632497125
1.1778873460
1.1621137811
1.1747521655
1.1704060997
1.1701334552
1.1633514126
1.1628712879
1.1663442908
1.1679845796
1.1623118703
1.1726440973
1.1707399287
1.1650103896
1.1647536185
1.1897950462
1.1675580614
1.1691685488
1.1749002439
1.1733057190
1.1620340472
1.1678347175
1.1618725670
1.1687182976
1.1640670292
1.1712937198
1.1886119130
1.1701028689
1.1760857300
1.1621165175
1.1717859317
1.1713567517
1.1910927407
1.1663993625
1.1635063427
1.1633924431
1.1641634030
1.1711818123
1.1706516474
1.1635517407
1.1693477708
1.1629263679
1.1650817571
1.1637092756
1.1645461706
1.1671780382
1.1717209513
1.1630685972
1.1697046913
1.1650067849
1.1725593009
1.1679956713
1.1897894531
1.1650160505
1.1652094666
1.1863778571
1.1632241507
1.1658181110
1.1902960766
1.1718432627
1.1729783965
1.1720058197
1.1875624140
1.1654254233
1.1910841087
1.1635568356
1.1641716715
1.1676971107
1.1911219860
1.1637125304
1.1633973896
1.1681852296
1.1897486731
1.1713777046
1.1616366226
1.1905715263
1.1621978656
1.1635117274
1.1620079324
1.1650889459
1.1727686747
1.1885175096
1.1741298342
1.1730267922
1.1606299631
1.1650139859
1.1652165379
1.1943660073
1.1608887939
1.1662779732
1.1616228747
1.1667857732
1.1725759922
1.1606286876
1.1873064413
1.1617018706
1.1639226152
1.1845555475
1.1937285282
1.1606246682
1.1618281357
1.1911156740
1.1905597713
1.1889659273
1.1923596796
1.1654350837
1.1607414268
1.1885095262
1.1923957807
1.1620909675
1.1729003280
1.1720204745
1.1894432245
1.1614631699
1.1859397533
1.1905742707
1.1737319188
1.1623854620
1.1839180059
1.1914529050
1.1612674731
1.1617034014
1.1914900789
1.1605723040
1.1616255679
1.1927808594
1.1610121084
1.1608437182
1.1728558416
1.1662867333
1.1616122475
1.1611713887
1.1598470197
1.1821696212
1.1932370629
1.1618105733
1.1845525931
1.1730350628
1.1943478519
1.1606326281
1.1741255163
1.1617044212
1.1610936737
1.1614112026
1.1608913262
1.1604142477
1.1934910403
1.1611753165
1.1964535835
1.1726651267
1.1905640448
1.1923822338
1.1648062300
1.1604559612
1.1600950037
1.1843260431
1.1623917004
1.1903119349
1.1952300783
1.1620946500
1.1839142008
1.1729048885
1.1966108062
1.1937320064
1.1628077074
1.1612700022
1.1829784033
1.1614612975
1.1873068777
1.1607441791
1.1946467667
1.1927292403
1.1617901033
1.1603206909
1.1932203614
1.1737237867
1.1608467347
1.1860672088
1.1821663850
1.1728595161
1.1953770440
1.1616147926
1.1595648960
1.1920315618
1.1614140812
1.1788398626
1.1735418763
1.1594071376
1.1813917032
1.1946324846
1.1648127985
1.1647575475
1.1965959197
1.1600974398
1.1614643327
1.1632766988
1.1950038248
1.1604586814
1.1726669296
1.1939217932
1.1597988261
1.1610222154
1.1940268744
1.1635247790
1.1768325855
1.1632012881
1.1954335557
1.1743242703
1.1595469684
1.1940996483
1.1943718465
1.1802704924
1.1602240255
1.1737199124
1.1919332743
1.1940271444
1.1860604229
1.1753779004
1.1598022387
1.1596682704
1.1952300347
1.1949901466
1.1939081830
1.1952189217
1.1632039082
1.1632816890
1.1975091214
1.1661745147
1.1780164133
1.1610248258
1.1593046882
1.1735389646
1.1965406398
1.1957054084
1.1644617399
1.1975185912
1.1747246844
1.1763300059
1.1617283757
1.1595493747
1.1940003627
1.1598046627
1.1608825256
1.1604437442
1.1743213978
1.1943895511
1.1598950909
1.1749213211
1.1994629308
1.1880897737
1.1957999139
1.1935383999
1.1753130674
1.1956921355
1.1755182711
1.1970648279
1.1822390009
1.1966458285
1.1952132670
1.1764211384
1.1964326889
1.1978623735
1.1661826386
1.1961581866
1.1997218372
1.1910037285
1.1958737209
1.1758453538
1.1850814790
1.1979129894
1.1777540287
1.1965270514
1.1987941874
1.1974941665
1.1627956666
1.1760899119
1.1750973239
1.1608855291
1.1737594553
1.1797395518
1.1604459080
1.1750468274
1.1759098627
1.1655545739
1.1712120286
1.1678548787
1.1753502724
1.1761459247
1.1726333133
1.1611137301
1.1745816550
1.1756600539
1.1633748406
1.1695236068
1.1676127689
1.1750595470
1.1767970301
1.1866461311
1.1964445674
1.1980879434
1.1810320240
1.1764232940
1.1966293508
1.1755133496
1.1957823741
1.1985279586
1.1763302984
1.1926053179
1.1996883271
1.1970510008
1.1836787670
1.1946740449
1.1896688844
1.1993047980
1.1785788681
1.1896971248
1.1976566454
1.1978489005
1.1836906060
1.1772659902
1.1982560266
1.1757309780
1.1763724485
1.1952605348
1.2009179792
1.1866580182
1.1958576471
1.1924065681
1.1997085763
1.1733685832
1.1788392562
1.1771207961
1.1775458211
1.1776446860
1.1776265614
1.1749556471
1.1695402878
1.1660015437
1.1690181856
1.1757068653
1.1622554666
1.1714142560
1.1769650755
1.1748289076
1.1809159033
1.1627987554
1.1711241996
1.1744626260
1.1740759142
1.1774345226
1.1776164329
1.1776331172
1.1774751901
1.1753180703
1.1695959796
1.1678649674
1.1665060653
1.1760857793
1.1641088771
1.1712659257
1.1760809851
1.1732170365
1.1723876663
1.1746402514
1.1845344729
1.1953959426
1.1999200599
1.1985135156
1.1990836979
1.1884764005
1.1765854849
1.1772280243
1.1907354887
1.1763295031
1.1941143678
1.1794108255
1.1764297387
1.1825253981
1.1964293108
1.1876012143
1.1965658928
1.2009050882
1.2013098340
1.1914605770
1.1779393440
1.1769679102
1.1937594153
1.1760309810
1.1952455933
1.1817450288
1.1766691406
1.1854235008
1.1984017884
1.1792568967
1.1768777004
1.1799470579
1.1649679227
1.1771288113
1.1785618196
1.1763845624
1.1776813491
1.1745769411
1.1732398414
1.1752735024
1.1729782236
1.1782429002
1.1799716956
1.1804006662
1.1770350697
1.1801963430
1.1694361064
1.1796248967
1.1769658005
1.1802124803
1.1672549627
1.1771223250
1.1771170900
1.1767800030
1.1756499874
1.1731625769
1.1752496172
1.1703265810
1.1788280848
1.1804348249
1.1770857033
1.1795842004
1.1714318478
1.1877306273
1.1868385060
1.1782777536
1.1896701365
1.1865745080
1.1953821570
1.1860443736
1.1911051902
1.1775140408
1.1875384272
1.1765463278
1.1808474566
1.1912664882
1.1895641809
1.1883758622
1.1997571624
1.1763094344
1.1772325959
1.1879290305
1.1817851606
1.1926817051
1.1848212017
1.1851832051
1.1885804537
1.1975100268
1.1896466979
1.1919251016
1.1933770167
1.1873114453
1.1855019944
1.1777048339
1.1884792695
1.1896959272
1.1977607065
1.1838160610
1.1916607686
1.1793348252
1.1886304842
1.1761016492
1.1835546606
1.1925567474
1.1886830305
1.1861994782
1.2012980854
1.1770840274
1.1763632481
1.1912365714
1.1847117787
1.1937460368
1.1835180460
1.1866592810
1.1872446264
1.2008042869
1.1905446003
1.1917297498
1.1944708108
1.1706326838
1.1772484099
1.1794992818
1.1794291933
1.1806029830
1.1792921289
1.1831911247
1.1733098481
1.1787766002
1.1750060252
1.1698222633
1.1823169884
1.1646643519
1.1743889944
1.1810542393
1.1771385296
1.1786122039
1.1752771726
1.1781373254
1.1810580553
1.1684537511
1.1764206950
1.1834305591
1.1786330615
1.1791360418
1.1794895422
1.1686063660
1.1822627982
1.1675647600
1.1746215451
1.1803515958
1.1795557213
1.1823981532
1.1794125329
1.1834379509
1.1752941865
1.1840210592
1.1800923414
1.1659192106
1.1811014291
1.1653022622
1.1761399522
1.1816843203
1.1769116527
1.1782487069
1.1729569593
1.1789709474
1.1793313737
1.1710091438
1.1830801342
1.1788923899
1.1793426662
1.1700053724
1.1827775386
1.1845430090
1.1976361379
1.1855762752
1.1833432985
1.1883015923
1.1875401876
1.1909970575
1.1938395176
1.1839333258
1.1859205856
1.1961637897
1.1845285416
1.1859128708
1.1879094763
1.1787341949
1.1887450395
1.1833930292
1.1851848428
1.1864123096
1.1823932159
1.1910221917
1.1902907048
1.1882252089
1.1883820126
1.1852301890
1.1960040932
1.1887467116
1.1952113817
1.1795548940
1.1986849053
1.1818190527
1.1919249422
1.1760964013
1.1837218282
1.1853858490
1.1963594668
1.1953129931
1.1864130905
1.1933968554
1.1942717641
1.1912656176
1.1911079234
1.1978489691
1.1933652605
1.1782840997
1.1896473810
1.1879523479
1.1902881905
1.1858561647
1.1979262882
1.1852600053
1.1929071074
1.1816851294
1.1866846338
1.1863943472
1.1894120973
1.1950836278
1.1870797874
1.1860525778
1.1975862410
1.1850582320
1.1896373375
1.1810843684
1.1898006947
1.1840995937
1.1838684433
1.1838668452
1.1924745588
1.1912248302
1.1888944576
1.1900054325
1.1855396806
1.1949240158
1.1938452808
1.1769674992
1.2007938468
1.1826359541
1.1900979946
1.1917481525
1.1761661538
1.1823958058
1.1948240272
1.1946356444
1.1877600480
1.1918680388
1.1927071315
1.1905443575
1.1917312380
1.1986307405
1.1961835702
1.1768253220
1.1886318802
1.1892364564
1.1806277342
1.1725270446
1.2020245244
1.2015663195
1.1811157386
1.1770583109
1.1744742357
1.1824937849
1.1652999348
1.1940116683
1.1847283836
1.1812619197
1.1795063952
1.2028492854
1.1902958975
1.1749936888
1.1869361033
1.1774489958
1.1664791503
1.1763799562
1.2031543398
1.1817231206
1.1677593125
1.1983406878
1.2012099478
1.1706322922
1.1694349373
1.1781225957
1.1781229409
1.1753643917
1.1801744200
1.1821241693
1.1998156517
1.1715341956
1.1775396511
1.1965742836
1.1825842469
1.1820024391
1.1930813808
1.1708485419
1.1651104682
1.1775069120
1.1704347359
1.1984719337
1.1836321318
1.1751766341
1.2027453075
1.2006991216
1.1807341361
1.1746719620
1.1824029374
1.1659131404
1.1922710154
1.1807445543
1.1775388199
1.2020155799
1.1935440874
1.1800815351
1.1876612434
1.1793090257
1.1659202143
1.1781502019
1.2032070864
1.1822953427
1.1708351880
1.1997896687
1.2000156919
1.1697092667
1.1698158186
1.1761394287
1.1693315160
1.1754494423
1.1795053011
1.1817301497
1.2003424774
1.1686039225
1.1992929703
1.1840077502
1.1717711227
1.1795225430
1.1949522508
1.1783577697
1.1677682221
1.1760820382
1.1969057848
1.1804834329
1.1902855036
1.1763754109
1.1879099170
1.1965638373
1.1961643397
1.1868608263
1.1795268124
1.1721354779
1.1880854893
1.1582060306
1.1908676581
1.1645402071
1.1938339893
1.1737320753
1.1906793949
1.1657033065
1.1760830157
1.1736665412
1.1906808554
1.1872437153
1.1910229030
1.1618205648
1.1882228244
1.1838262664
1.1879832296
1.1835210727
1.1938370462
1.1667366929
1.1750364993
1.1976367206
1.1886837164
1.1861581023
1.1605384919
1.1845399741
1.1861202259
1.1938403940
1.1910895543
1.1851824390
1.1845486285
1.1925196519
1.1809557208
1.1528527670
1.1840169395
1.1989019889
1.1866604390
1.1945261394
1.1979226790
1.1775071488
1.1606836985
1.1945263551
1.1949811334
1.1806214788
1.1791264734
1.1929412461
1.1797054852
1.1869273226
1.1929159457
1.1781449225
1.1935330863
1.1781444776
1.1861980000
1.1992834924
1.1950847062
1.1851831732
1.1941185856
1.1775090494
1.1745688806
1.1896804575
1.1597458579
1.1949322251
1.1667713845
1.1739588684
1.1588687140
1.1753634358
1.1707064523
1.1878598324
1.1922467360
1.1895004390
1.1569805775
1.1883800301
1.1983275130
1.1942749760
1.1630404395
1.1769783384
1.1970320042
1.1840758183
1.1515568679
1.1868410268
1.1924761208
1.1979201724
1.1861977653
1.1864675799
1.1798025994
1.1546845867
1.1979271934
1.1973484933
1.1756330252
1.1532006615
1.1957647087
1.1978499403
1.1836250180
1.1813176385
1.1944034375
1.1830542809
1.1876514305
1.1852620184
1.1754465694