<VTKFile type="UnstructuredGrid" version="0.1">
	<UnstructuredGrid>
		<Piece NumberOfPoints="1862" NumberOfCells="3498">
			<CellData>
				<DataArray type="Int32" Name="type" NumberOfComponents="1" Format="ascii">
0
0
0
0
0
0
0
0
0
0
0
0
0
0
0
0
1
0
0
1
0
0
0
0
0
0
0
0
0
0
0
0
0
1
0
0
0
0
0
0
0
0
0
0
0
0
0
0
0
0
1
0
0
0
0
0
0
0
0
0
0
1
0
0
0
0
0
0
0
0
0
0
0
0
0
0
0
0
0
0
0
0
0
0
0
0
0
0
0
0
0
0
0
0
0
0
0
0
0
0
0
0
0
0
0
0
0
0
0
0
0
0
0
0
0
0
0
0
0
0
0
0
0
1
0
0
0
0
0
0
0
0
0
0
0
0
0
0
0
0
0
0
0
0
0
0
0
0
0
0
0
1
0
1
1
0
0
0
0
0
0
0
0
0
0
0
0
0
1
0
1
0
0
0
0
1
0
0
0
0
0
0
0
0
1
1
0
0
0
0
0
1
0
0
0
0
0
0
0
0
1
0
0
0
0
0
0
0
0
0
0
0
0
0
0
0
0
0
0
0
0
0
0
0
0
0
0
0
0
0
0
0
0
1
0
0
0
0
0
0
0
0
0
0
0
0
0
0
0
0
0
0
0
0
0
0
0
0
0
0
0
0
0
0
0
0
0
0
0
0
0
0
0
0
0
0
0
0
0
0
0
1
0
0
0
0
0
0
0
0
0
0
0
0
0
0
0
0
0
0
0
0
0
0
0
0
0
0
0
0
0
0
0
0
0
0
0
0
0
0
0
0
0
0
0
0
0
0
0
0
0
0
1
0
0
0
0
0
0
0
0
0
0
0
0
0
0
0
0
0
0
0
0
0
0
0
0
0
0
0
0
0
0
0
0
0
0
0
0
0
0
0
0
0
0
0
0
0
0
0
0
0
0
0
0
0
0
0
0
0
1
0
0
0
0
0
0
0
0
0
0
0
0
0
0
0
0
0
0
0
0
0
0
0
0
0
0
0
0
0
0
0
0
0
0
0
0
0
0
0
0
0
0
0
0
0
0
0
0
0
0
0
0
0
0
0
0
0
0
0
0
0
0
0
0
0
0
0
0
0
0
0
0
0
0
0
0
0
0
0
0
0
0
0
0
0
0
0
0
0
0
0
0
0
0
0
0
0
0
0
0
0
0
0
0
0
0
0
0
0
0
0
0
0
0
0
0
0
0
0
0
0
0
0
0
0
0
0
0
0
0
0
0
1
0
0
0
0
0
0
0
0
0
0
0
0
0
0
0
0
0
0
0
1
0
0
0
0
0
0
0
0
0
0
0
0
0
0
0
0
0
0
0
0
0
0
0
0
0
0
0
0
0
0
0
0
0
0
0
0
0
0
0
0
0
0
0
0
0
0
0
0
0
0
0
0
0
1
0
0
0
0
0
0
0
0
0
0
0
0
0
0
0
0
0
0
0
0
0
0
0
1
0
0
0
0
0
0
0
0
0
0
0
0
0
0
0
0
0
0
0
1
0
0
0
1
0
0
0
0
0
0
0
0
0
0
0
0
0
0
0
0
0
0
0
0
0
0
0
0
0
1
0
0
0
0
0
0
0
1
0
0
0
0
0
0
0
0
0
0
0
0
0
0
0
0
0
0
0
0
0
0
0
0
0
0
1
0
0
0
0
0
0
0
1
0
0
0
0
0
0
1
0
0
0
0
0
0
0
0
0
0
0
0
0
0
0
0
0
0
0
0
0
0
0
0
0
0
0
0
0
0
0
0
0
0
0
0
0
0
1
0
0
0
0
0
1
0
0
0
0
0
0
0
1
0
0
0
0
0
0
0
0
0
0
0
0
0
1
0
0
0
0
0
0
0
0
0
0
0
0
0
0
0
0
0
0
0
0
0
0
0
0
0
0
0
0
0
0
0
0
0
0
0
0
0
0
0
0
0
0
0
0
0
0
0
0
0
0
0
0
0
1
0
0
0
0
0
0
0
0
0
0
0
0
0
0
0
0
0
0
0
1
0
0
0
0
0
0
0
0
0
1
0
0
0
0
0
0
0
0
0
0
0
0
0
0
0
0
0
0
0
0
0
0
0
0
0
0
0
0
0
1
0
1
0
0
0
0
0
0
0
0
0
0
0
0
0
0
0
0
0
0
0
0
0
0
0
0
0
0
0
1
0
0
0
1
0
0
0
0
0
0
0
0
0
0
0
0
0
0
0
0
0
0
0
0
0
0
0
0
0
0
0
0
1
0
0
0
0
0
0
0
0
0
0
0
0
0
0
0
0
0
0
0
0
0
0
0
0
0
1
0
0
0
0
0
0
0
0
0
0
0
0
0
0
0
0
0
0
0
0
0
0
0
1
0
0
0
0
0
0
1
0
0
0
0
0
0
0
0
0
0
0
1
0
0
0
0
0
0
0
0
0
0
0
0
0
0
0
0
0
0
0
0
1
0
0
0
0
0
0
0
0
0
0
0
1
0
0
0
0
0
0
0
0
0
0
0
0
0
0
0
0
0
0
0
0
0
1
0
0
0
0
0
0
0
0
0
1
1
0
1
0
1
0
0
0
0
0
0
0
0
0
0
0
1
0
0
0
0
0
1
1
0
0
0
0
0
0
1
0
0
0
0
0
1
1
1
0
0
0
0
0
0
0
0
0
0
0
0
1
1
0
0
1
0
0
0
0
0
1
0
0
0
1
0
1
0
0
0
0
0
0
0
1
0
0
0
0
0
0
0
1
0
0
1
0
0
0
0
0
0
0
0
0
0
0
0
0
0
0
1
0
0
0
0
0
0
0
0
0
0
0
0
0
0
0
0
0
0
0
0
0
0
0
0
0
0
0
0
0
0
0
0
0
0
0
0
1
0
0
0
0
0
0
1
0
0
0
1
0
0
0
0
0
0
0
0
0
0
0
1
0
0
0
0
0
0
0
0
0
0
0
0
0
0
0
0
0
0
0
0
0
0
0
0
0
0
0
0
0
0
0
0
0
0
0
0
0
0
0
0
1
1
0
0
0
0
0
0
0
0
0
0
0
0
0
1
0
0
0
0
0
0
0
0
0
0
0
0
0
0
0
0
0
0
0
0
0
0
0
0
0
0
0
0
0
0
0
0
0
0
0
0
0
0
0
0
0
0
0
0
0
0
0
0
0
0
0
0
0
0
0
0
0
0
0
0
0
0
0
0
0
0
0
0
0
0
0
0
1
1
0
0
0
0
0
0
0
0
1
0
0
0
0
0
0
0
0
0
0
0
0
0
0
0
0
0
0
0
0
0
0
0
1
0
0
0
0
0
0
0
0
0
0
0
0
0
0
0
0
1
0
0
0
0
0
0
0
0
0
0
0
0
0
0
0
0
0
0
0
0
0
0
0
0
0
0
0
0
0
0
0
0
0
0
0
0
0
0
0
0
0
0
0
0
0
0
0
0
0
0
0
0
0
0
0
0
0
0
0
0
0
0
0
0
0
0
0
0
0
0
0
0
0
0
0
0
0
0
0
0
0
0
0
0
0
0
0
0
0
0
1
1
0
0
0
0
0
1
0
0
0
0
0
0
0
0
0
0
0
0
1
0
0
0
0
0
0
0
0
0
0
0
0
0
0
0
0
0
0
0
0
0
0
0
0
0
0
0
0
0
0
0
0
0
0
0
0
0
0
0
0
0
0
0
0
0
0
0
0
0
0
0
0
0
1
0
1
0
0
0
0
0
0
0
0
0
0
0
0
0
0
0
0
0
0
1
0
0
0
0
0
0
0
0
0
0
0
0
0
0
0
0
0
0
0
0
0
0
0
0
0
0
0
0
0
0
0
0
0
0
0
0
0
0
0
0
0
0
0
0
0
0
0
0
0
0
0
0
0
0
0
0
0
0
0
0
0
0
0
0
0
0
0
0
0
0
1
0
0
0
0
0
0
0
0
0
0
1
0
0
0
0
0
0
0
0
0
0
0
0
0
0
0
0
0
0
0
0
0
0
0
0
0
0
0
0
0
0
0
0
0
0
0
0
0
1
0
0
0
0
0
0
0
0
0
0
0
0
0
0
0
0
0
0
0
0
0
0
0
0
0
0
0
0
0
0
0
0
0
0
0
0
0
0
0
0
0
0
0
0
0
0
0
0
0
0
0
0
0
0
0
0
0
0
0
0
0
0
0
0
0
0
0
0
0
0
0
0
0
0
0
0
0
0
0
0
0
1
0
0
0
0
0
0
0
0
0
0
0
0
0
0
0
0
0
0
0
0
0
0
0
0
0
0
0
0
0
0
0
0
0
0
0
0
0
0
0
0
0
0
0
0
0
0
0
0
0
0
0
0
0
0
0
0
0
0
0
0
0
0
0
0
0
0
0
0
0
0
0
0
0
0
0
0
0
0
0
0
0
0
0
0
0
0
0
0
0
0
0
0
0
0
0
0
0
0
0
0
0
0
0
0
0
0
0
0
0
0
0
0
0
0
0
0
0
0
0
0
0
0
0
1
0
0
0
0
0
0
0
0
0
0
0
0
0
0
0
0
0
0
0
0
0
0
0
0
0
0
0
0
0
0
0
0
0
0
0
0
0
0
0
0
0
0
0
0
0
0
0
0
0
0
0
0
0
0
0
0
0
0
0
0
0
0
0
0
0
0
0
0
0
0
0
0
0
0
0
0
0
0
0
0
0
1
0
0
0
0
0
0
0
1
0
0
0
0
0
0
0
0
0
0
0
0
0
0
0
0
0
0
0
0
0
0
0
0
0
0
0
0
0
0
0
0
0
0
0
0
0
1
0
0
0
0
0
0
0
0
0
0
0
0
0
0
0
0
0
0
0
0
0
1
0
0
0
0
0
0
0
0
0
0
0
0
1
1
0
0
0
0
0
0
0
0
0
0
0
0
0
0
0
1
1
0
1
0
0
0
0
0
0
0
0
0
1
0
0
0
0
0
0
1
0
0
0
0
0
0
0
0
0
0
1
0
0
0
0
1
0
1
0
0
0
0
0
0
0
1
0
0
0
1
0
0
0
1
0
1
1
0
0
1
1
0
0
0
1
0
0
0
1
0
0
0
0
0
0
0
0
0
1
0
0
0
0
0
0
1
0
0
0
0
0
0
0
0
0
0
0
0
0
0
0
0
0
0
0
0
0
0
0
0
0
0
0
1
0
0
1
0
0
0
0
0
0
0
0
0
0
0
0
0
0
0
0
0
0
1
0
0
1
0
0
0
0
0
0
0
0
0
0
0
1
0
0
1
0
0
0
0
0
0
0
0
0
0
0
1
1
0
0
0
0
0
0
0
0
0
0
0
0
1
0
0
0
0
0
0
0
0
0
0
0
0
0
0
0
0
0
1
0
0
0
0
0
0
0
0
0
0
0
0
0
0
0
0
0
1
0
0
0
0
0
0
0
0
0
0
0
0
0
0
0
0
0
0
0
0
0
0
0
0
0
0
0
0
0
0
0
0
0
0
0
0
0
0
0
0
1
0
0
0
0
0
0
0
0
0
0
0
0
0
0
0
0
0
0
0
0
0
0
0
0
0
0
0
0
0
0
0
0
0
0
0
0
0
0
0
0
0
0
0
0
0
1
0
0
0
0
0
0
0
0
0
0
0
0
0
0
0
0
0
0
0
0
0
0
0
0
0
0
0
0
0
0
0
0
0
0
0
0
0
0
0
0
0
0
0
0
0
0
0
1
0
0
0
0
0
0
0
0
0
0
1
0
0
0
0
0
0
0
0
0
0
0
0
0
0
0
1
0
0
1
0
0
0
0
0
0
0
0
0
0
0
0
0
0
0
0
0
0
0
0
0
0
0
1
0
0
0
0
0
0
0
0
0
0
0
0
0
0
0
0
0
0
0
0
0
0
0
0
0
0
0
0
0
0
0
0
0
0
0
1
0
0
0
0
0
0
0
0
0
0
0
0
0
0
0
0
0
0
0
0
0
0
0
0
0
0
0
0
0
0
0
0
0
0
0
0
0
0
0
0
0
0
0
0
0
0
0
0
0
0
0
0
0
0
0
0
0
0
0
0
0
0
0
0
0
0
0
0
0
0
0
0
0
0
0
0
1
0
0
0
0
0
0
0
0
0
0
0
0
0
0
0
0
0
0
0
0
0
0
0
0
0
0
0
0
0
0
0
0
0
0
0
0
0
0
0
1
0
0
0
0
0
0
0
0
0
0
0
0
1
1
0
0
0
0
0
0
0
0
0
0
0
0
0
0
0
0
0
0
0
0
0
0
0
0
0
0
0
0
0
0
0
0
0
0
0
0
0
0
0
0
0
0
0
0
0
0
0
0
0
0
0
0
0
0
0
0
0
0
0
0
0
0
0
0
0
0
0
0
0
0
0
0
0
0
0
0
0
0
0
0
0
0
0
0
0
0
0
0
0
0
0
0
0
0
0
0
0
0
0
0
0
1
0
1
0
0
0
0
0
0
0
1
1
1
1
0
0
0
0
0
0
0
0
0
0
0
0
0
0
0
0
0
0
0
0
0
0
0
0
0
0
0
0
1
1
0
0
0
0
0
0
0
0
0
0
0
0
0
0
0
0
0
0
1
0
0
0
0
0
0
0
1
1
0
1
1
0
0
1
0
0
0
0
0
0
0
1
0
1
0
0
0
0
0
0
0
0
0
0
0
0
0
0
0
0
0
0
0
0
0
0
0
0
0
0
0
1
1
0
0
0
1
1
0
0
0
0
1
0
0
1
0
1
0
0
0
0
0
1
0
0
0
1
0
0
0
0
0
0
0
0
0
0
0
0
0
0
0
0
0
0
0
0
0
0
0
0
0
0
0
1
0
0
0
0
0
0
1
0
0
0
0
0
0
0
0
0
0
0
0
0
0
0
0
0
0
0
0
0
0
0
0
0
0
0
0
0
1
0
1
0
0
0
0
0
0
0
1
0
0
0
0
0
0
0
0
0
0
0
1
0
0
0
0
0
0
0
0
0
1
0
0
0
0
0
0
0
1
0
0
0
0
0
0
0
1
0
0
0
0
0
0
0
0
0
0
0
0
0
0
0
0
0
0
0
1
0
1
0
0
0
0
0
1
0
0
0
0
0
0
0
0
0
0
0
0
0
0
0
0
0
0
0
0
0
0
0
0
0
1
0
1
0
0
0
0
0
0
0
0
0
1
0
0
0
0
0
1
0
0
0
0
0
0
0
0
0
0
0
0
0
0
0
1
0
0
0
0
0
0
0
0
1
0
0
0
0
0
0
0
0
0
0
0
0
0
0
0
0
0
0
0
0
0
0
0
0
0
0
0
0
0
0
1
0
0
0
0
0
0
0
0
0
0
0
0
0
0
0
0
1
0
0
0
0
0
0
0
0
1
0
0
0
0
0
0
0
0
0
1
0
0
0
0
0
1
0
0
0
0
0
0
0
0
0
0
0
0
0
0
0
0
0
0
0
1
0
0
0
0
0
0
1
0
0
0
0
0
0
0
0
1
0
0
0
0
0
0
0
0
0
0
0
0
0
0
1
0
0
1
0
0
0
1
0
0
0
0
0
0
0
0
0
0
0
0
0
0
0
0
1
0
0
0
0
0
0
0
0
0
0
1
0
1
0
0
0
0
0
0
1
0
0
0
0
0
0
0
0
0
0
0
0
0
0
0
0
0
0
0
0
0
0
0
0
0
0
0
1
1
0
0
0
0
0
0
1
0
0
0
0
0
0
0
0
0
0
0
0
0
1
0
0
0
0
0
0
0
1
0
0
0
0
0
0
0
0
0
0
0
0
0
0
0
0
0
0
0
0
0
0
0
0
0
0
0
1
0
0
0
0
0
0
0
0
0
0
1
0
0
1
0
0
0
0
0
0
0
0
0
0
0
0
0
0
0
0
0
0
0
0
0
0
0
0
0
0
0
0
0
1
0
0
0
0
0
0
0
1
0
0
0
0
0
0
0
1
0
0
0
0
1
0
0
0
0
0
0
0
0
0
0
0
1
0
1
0
0
0
1
0
				</DataArray>
				<DataArray type="Float64" Name="h" NumberOfComponents="1" Format="ascii">
1.1730129179
1.1730136967
1.1732847856
1.1729416354
1.1733762753
1.1731960615
1.1731241646
1.1728501132
1.1730049246
1.1726437501
1.1728295892
1.1731159014
1.1729332874
1.1727353474
1.1728744964
1.1728781772
1.1730309258
1.1727283889
1.1730612560
1.1728351683
1.1733846033
1.1731076155
1.1733882904
1.1735346548
1.1729046295
1.1727563015
1.1734839774
1.1745510194
1.1735417611
1.1726802867
1.1727370225
1.1733429309
1.1731508060
1.1732120496
1.1740642889
1.1737308747
1.1736868596
1.1736195484
1.1746236791
1.1735484145
1.1735125461
1.1744085004
1.1734400271
1.1737810884
1.1737108695
1.1742608808
1.1735759381
1.1742219256
1.1773471494
1.1772134464
1.1734807307
1.1739518790
1.1737278650
1.1754030199
1.1741386087
1.1737008421
1.1741723197
1.1746490670
1.1750131249
1.1750482037
1.1752160062
1.1749422385
1.1770005723
1.1739023641
1.1740168029
1.1750853752
1.1770757852
1.1768482688
1.1750445496
1.1747415680
1.1749938583
1.1740625094
1.1738731821
1.1756677650
1.1753150077
1.1753470037
1.1747375255
1.1754032794
1.1744593899
1.1750377112
1.1756479517
1.1753198761
1.1782074434
1.1766945471
1.1748219105
1.1755447535
1.1758408777
1.1765885192
1.1757386038
1.1781638558
1.1762562570
1.1752935659
1.1755738280
1.1780714026
1.1757408462
1.1754799110
1.1764158897
1.1747827116
1.1749587761
1.1759665474
1.1780213688
1.1755485270
1.1759236571
1.1743576195
1.1725087955
1.1770064801
1.1761624178
1.1775808073
1.1754792400
1.1756611118
1.1778375837
1.1779497318
1.1760041016
1.1765878979
1.1760823702
1.1769151196
1.1758249250
1.1725381831
1.1769824421
1.1762417931
1.1725431892
1.1763141431
1.1759266758
1.1725036256
1.1763272303
1.1774552113
1.1759859614
1.1723973634
1.1765634553
1.1771470776
1.1765896466
1.1761048286
1.1761501603
1.1765748871
1.1725595448
1.1767100481
1.1726367694
1.1768451569
1.1759242592
1.1730979108
1.1723025591
1.1725434022
1.1767308785
1.1733936896
1.1758756316
1.1763342318
1.1728503338
1.1775399789
1.1724728395
1.1774743045
1.1726126753
1.1767024367
1.1769575999
1.1771545723
1.1757473782
1.1772048536
1.1768709334
1.1724487535
1.1772839973
1.1723302914
1.1732825909
1.1773434859
1.1727947853
1.1723769702
1.1723815511
1.1775508574
1.1737490468
1.1730050566
1.1725422411
1.1772606884
1.1768454325
1.1724315122
1.1770010357
1.1724246414
1.1739890902
1.1766022523
1.1736076144
1.1781069900
1.1767630121
1.1723378604
1.1773319413
1.1744243514
1.1722869988
1.1762780211
1.1723121815
1.1726496888
1.1741606757
1.1770203321
1.1725564773
1.1726888356
1.1749081448
1.1768128632
1.1723576543
1.1746268020
1.1766285515
1.1780006045
1.1723575052
1.1754406305
1.1751392749
1.1776835995
1.1727073803
1.1765816944
1.1726528704
1.1772479241
1.1760284364
1.1721999007
1.1730598875
1.1726218862
1.1756982354
1.1736680373
1.1749565165
1.1724745460
1.1723030155
1.1721101598
1.1728201305
1.1754857320
1.1733414982
1.1723082691
1.1744761443
1.1722214286
1.1763161746
1.1784584968
1.1740460977
1.1781479247
1.1769651358
1.1782344610
1.1785631443
1.1775966423
1.1766758335
1.1785395522
1.1777217433
1.1783274560
1.1772704575
1.1779787645
1.1784152480
1.1779054254
1.1752469946
1.1733203587
1.1721640561
1.1739760159
1.1753021991
1.1728173267
1.1722766649
1.1739027591
1.1727778687
1.1732513151
1.1722484334
1.1747484376
1.1730498018
1.1724344688
1.1736275880
1.1748118283
1.1724026835
1.1757982799
1.1758429888
1.1721832556
1.1735544832
1.1729914636
1.1721126529
1.1784288980
1.1743701082
1.1773773848
1.1780268978
1.1786099529
1.1772988912
1.1786320094
1.1787832357
1.1767060729
1.1782246454
1.1789839047
1.1791152566
1.1743005063
1.1786912090
1.1779464092
1.1782218461
1.1770657905
1.1777000746
1.1783400521
1.1788257863
1.1769949176
1.1787383006
1.1785250684
1.1784673232
1.1789686044
1.1790818680
1.1785861348
1.1776173264
1.1736272403
1.1723733743
1.1724402214
1.1735376145
1.1755980810
1.1730746358
1.1730004438
1.1743124388
1.1756548191
1.1742239926
1.1733353773
1.1726326535
1.1721856739
1.1723552544
1.1732514727
1.1750899064
1.1761994745
1.1761595124
1.1739515207
1.1751607397
1.1738603886
1.1725687265
1.1777759700
1.1783783873
1.1784651031
1.1787867894
1.1770858885
1.1796856248
1.1789198289
1.1747143334
1.1792324736
1.1793622368
1.1746327883
1.1790877195
1.1777228086
1.1795170590
1.1791958141
1.1781210903
1.1780535457
1.1787935848
1.1790303741
1.1786749580
1.1791063527
1.1792929326
1.1795507302
1.1790953233
1.1774412058
1.1793318210
1.1773974427
1.1796369078
1.1738623766
1.1812223172
1.1746705216
1.1760042033
1.1745663939
1.1725763760
1.1759499664
1.1733918935
1.1739757490
1.1732857662
1.1726795276
1.1816439044
1.1791970087
1.1765448765
1.1808520237
1.1735602712
1.1728003064
1.1820047981
1.1743072023
1.1799525127
1.1755140800
1.1741959516
1.1815828526
1.1814082950
1.1819146841
1.1723575276
1.1754391961
1.1765135990
1.1736715116
1.1783488571
1.1790988936
1.1800742454
1.1726062582
1.1808688396
1.1821086167
1.1728994185
1.1799657614
1.1794163058
1.1795668372
1.1797851297
1.1743367259
1.1802664491
1.1781540889
1.1774470764
1.1797831406
1.1793724497
1.1750710676
1.1800531065
1.1749792240
1.1781323620
1.1788269989
1.1788938941
1.1760624443
1.1796920202
1.1777949988
1.1791431863
1.1778988292
1.1801533140
1.1798398043
1.1749359115
1.1754329871
1.1756316136
1.1770019594
1.1785249335
1.1798625258
1.1766379751
1.1796323241
1.1774221031
1.1796210515
1.1801978039
1.1777824158
1.1784848629
1.1763268928
1.1792464655
1.1787620469
1.1806707662
1.1794766453
1.1742208174
1.1816207597
1.1810095468
1.1749234647
1.1811654000
1.1788758465
1.1785694282
1.1779738855
1.1736260918
1.1815722625
1.1821243897
1.1800612076
1.1808591203
1.1728503140
1.1819096130
1.1762936020
1.1796406292
1.1824854017
1.1812761012
1.1822167542
1.1804227500
1.1804839529
1.1830722352
1.1808793909
1.1810045373
1.1787395304
1.1797076220
1.1814984195
1.1739130003
1.1824373846
1.1795077460
1.1745552919
1.1792867469
1.1804309355
1.1803938576
1.1823721540
1.1816564798
1.1806157149
1.1726083369
1.1784698913
1.1757876614
1.1779743064
1.1831815922
1.1827591092
1.1807243915
1.1831711425
1.1730984215
1.1768520482
1.1746054579
1.1799832302
1.1753323094
1.1799115774
1.1796870798
1.1785195439
1.1773893931
1.1740151546
1.1803912888
1.1752865749
1.1803356356
1.1761260989
1.1777822342
1.1792680835
1.1838655646
1.1764532013
1.1731905444
1.1746490705
1.1749558336
1.1771664562
1.1743032283
1.1802332474
1.1838229461
1.1837141660
1.1804383669
1.1752159826
1.1796104710
1.1759510670
1.1800073436
1.1781424217
1.1843065324
1.1734606350
1.1749371120
1.1758351776
1.1749301676
1.1842863760
1.1801571936
1.1755992324
1.1824686819
1.1831488219
1.1762456016
1.1756324957
1.1770024044
1.1756830378
1.1788995136
1.1729261596
1.1777646601
1.1806812443
1.1752149361
1.1766199817
1.1817296868
1.1752875464
1.1788558329
1.1731923894
1.1819867925
1.1792098281
1.1733656798
1.1754185685
1.1766208080
1.1802183875
1.1798862069
1.1816061765
1.1747735319
1.1827885403
1.1765492392
1.1809743693
1.1783115158
1.1766562546
1.1820494195
1.1746066656
1.1812098515
1.1741899230
1.1740166304
1.1773755501
1.1734623973
1.1749312518
1.1729280276
1.1783117021
1.1771672653
1.1770883718
1.1765061441
1.1731096028
1.1766969745
1.1750841827
1.1757058952
1.1761269386
1.1768635808
1.1764557051
1.1830895975
1.1765813897
1.1744775300
1.1781393455
1.1736328429
1.1786098810
1.1771680441
1.1764049764
1.1826131215
1.1828036054
1.1761969986
1.1763063327
1.1827596987
1.1743045649
1.1777263929
1.1808810225
1.1756839226
1.1796874138
1.1812969022
1.1806159150
1.1757865941
1.1805866193
1.1827375284
1.1811663146
1.1788767837
1.1738128061
1.1780849857
1.1794451308
1.1817298713
1.1765074498
1.1754857829
1.1803942858
1.1824688428
1.1776021128
1.1800687815
1.1746648033
1.1810061942
1.1806717895
1.1792874242
1.1779360586
1.1808603573
1.1773912646
1.1760719954
1.1777899121
1.1776314544
1.1784709173
1.1769414525
1.1735296321
1.1841762765
1.1767081049
1.1778211167
1.1761250663
1.1838461351
1.1752065716
1.1800614104
1.1771862497
1.1771637234
1.1838209435
1.1810115854
1.1793102398
1.1771024110
1.1743859898
1.1834921278
1.1783038650
1.1794452076
1.1749365478
1.1813627860
1.1741912815
1.1757874369
1.1766569746
1.1747746768
1.1828899142
1.1791305297
1.1741005433
1.1733674178
1.1757877747
1.1792365504
1.1843774714
1.1736344860
1.1777997108
1.1771638366
1.1786444944
1.1775088845
1.1771687238
1.1754195099
1.1761977681
1.1744787737
1.1834515486
1.1847043423
1.1826109602
1.1807130915
1.1731113657
1.1771887518
1.1772987139
1.1767434686
1.1840574794
1.1830779185
1.1781394406
1.1771117127
1.1840513486
1.1797914132
1.1756964721
1.1740851526
1.1749287293
1.1804181331
1.1763469696
1.1771935483
1.1750852273
1.1828818692
1.1754259485
1.1737688681
1.1746698552
1.1820011704
1.1839552145
1.1849238300
1.1822628695
1.1800519231
1.1760002166
1.1743887456
1.1751754551
1.1847803474
1.1850060076
1.1773757673
1.1773041736
1.1772274967
1.1781757110
1.1835278033
1.1784175085
1.1779587474
1.1856520507
1.1851784355
1.1767220979
1.1768361853
1.1839092381
1.1770590023
1.1773997431
1.1790804827
1.1846243849
1.1854023424
1.1850448619
1.1771484295
1.1772904523
1.1794982528
1.1787457005
1.1782480031
1.1844219022
1.1849341378
1.1831745197
1.1838307587
1.1806238922
1.1853560160
1.1857528731
1.1793853233
1.1847041464
1.1840985520
1.1793106319
1.1859392922
1.1765818957
1.1851850792
1.1768560535
1.1768377422
1.1858963422
1.1783042537
1.1855858783
1.1853708364
1.1763071471
1.1850262153
1.1769862182
1.1779194058
1.1846603708
1.1847836379
1.1753037077
1.1731887001
1.1731546210
1.1731557643
1.1731895925
1.1729889720
1.1731139257
1.1728277922
1.1728925780
1.1733522081
1.1731945035
1.1733777888
1.1733534242
1.1730064711
1.1728730631
1.1731226029
1.1727015903
1.1728941231
1.1729906734
1.1728105934
1.1727267440
1.1729432928
1.1732865776
1.1730606726
1.1726782917
1.1728391320
1.1731199728
1.1728517059
1.1727547367
1.1729028052
1.1726455183
1.1729456028
1.1729342695
1.1733455603
1.1730398419
1.1732132843
1.1727034373
1.1727348969
1.1728118438
1.1732099210
1.1731502164
1.1733426987
1.1733411278
1.1735465723
1.1745628357
1.1730329775
1.1728794755
1.1734407204
1.1746258211
1.1731220731
1.1728404479
1.1735116122
1.1727373330
1.1728371568
1.1733474452
1.1733880761
1.1743778199
1.1731080024
1.1736651706
1.1729463564
1.1733867072
1.1732133332
1.1732526597
1.1747653688
1.1742202688
1.1730408620
1.1737093108
1.1734787241
1.1735767185
1.1745499219
1.1735363557
1.1735423565
1.1741718927
1.1743346912
1.1734836142
1.1739271610
1.1727088288
1.1745602777
1.1743373356
1.1740048235
1.1733414055
1.1737277574
1.1743795920
1.1774579405
1.1767451201
1.1732523653
1.1736670328
1.1739104526
1.1747653309
1.1737322517
1.1740180926
1.1736182824
1.1743753942
1.1740660253
1.1769973340
1.1768450024
1.1746802988
1.1736888954
1.1739011505
1.1743390572
1.1746233111
1.1747997318
1.1737803302
1.1756651382
1.1751120318
1.1740608135
1.1738745001
1.1748066924
1.1743270735
1.1740599344
1.1739289909
1.1751458121
1.1740065932
1.1744100128
1.1747359981
1.1749922995
1.1755828293
1.1753128195
1.1743322460
1.1738410185
1.1750434302
1.1738076236
1.1727104092
1.1747404955
1.1739122146
1.1743772713
1.1751587389
1.1746814013
1.1765902563
1.1745375643
1.1773147470
1.1773506240
1.1739528051
1.1767481753
1.1742600871
1.1753189652
1.1766918401
1.1749256828
1.1774616479
1.1772168435
1.1752168363
1.1749430422
1.1738393165
1.1754458379
1.1755852853
1.1750149021
1.1748070981
1.1751143812
1.1750991900
1.1741244489
1.1746250307
1.1738094459
1.1745977625
1.1741401973
1.1751123208
1.1748079250
1.1751464122
1.1737001331
1.1752337057
1.1752489837
1.1743250660
1.1754053175
1.1748015664
1.1750504093
1.1752958602
1.1746504833
1.1740579991
1.1755727597
1.1765932548
1.1743562045
1.1749608145
1.1749277258
1.1745934583
1.1745395708
1.1755483031
1.1771722346
1.1757784611
1.1764456661
1.1750852101
1.1780184666
1.1770784455
1.1742148871
1.1747855214
1.1753547958
1.1754812811
1.1748510014
1.1773179837
1.1759659472
1.1770048526
1.1751573417
1.1780384475
1.1752353709
1.1754775300
1.1779454054
1.1754465414
1.1752508978
1.1760028337
1.1745998017
1.1753451932
1.1779397454
1.1748091843
1.1754046027
1.1741228745
1.1762071642
1.1750975324
1.1778331160
1.1756608805
1.1751136690
1.1757794404
1.1780397223
1.1754865805
1.1753551968
1.1755428513
1.1763134816
1.1758425188
1.1742164980
1.1725838979
1.1748531779
1.1764477557
1.1748197128
1.1750351601
1.1758411997
1.1782096919
1.1756483807
1.1758232191
1.1744609484
1.1771744385
1.1725410461
1.1765898433
1.1745915650
1.1762078084
1.1761055439
1.1776916937
1.1726007514
1.1774525405
1.1760321841
1.1764955350
1.1757405847
1.1757403051
1.1780759621
1.1772252792
1.1781677467
1.1762573696
1.1771254794
1.1745670394
1.1763250050
1.1759832459
1.1779439306
1.1771470512
1.1759246748
1.1775343281
1.1777760914
1.1754886260
1.1725857820
1.1758450336
1.1768893530
1.1725573929
1.1767091505
1.1761470583
1.1725108264
1.1764161135
1.1758772059
1.1775376482
1.1725411459
1.1764131140
1.1726025674
1.1772259649
1.1765899443
1.1775841390
1.1726840460
1.1745683218
1.1764968664
1.1760846296
1.1724705358
1.1776952605
1.1767310169
1.1725195551
1.1769148188
1.1760338933
1.1763339021
1.1771275109
1.1761613168
1.1724583906
1.1756551341
1.1775878330
1.1767866746
1.1775354980
1.1768920799
1.1724956831
1.1767139262
1.1776724116
1.1760120370
1.1762450911
1.1777791459
1.1767036677
1.1725402989
1.1762251832
1.1769836885
1.1725872958
1.1726102333
1.1769588440
1.1757473140
1.1726857721
1.1725219438
1.1730034766
1.1723792476
1.1764157917
1.1772409193
1.1724606966
1.1724119548
1.1776501567
1.1771872707
1.1775398433
1.1725060109
1.1765629578
1.1732815768
1.1724264730
1.1759254672
1.1765899336
1.1726201084
1.1727928070
1.1763775759
1.1773448569
1.1723997680
1.1772857129
1.1760121221
1.1726387315
1.1765739327
1.1770490725
1.1771870898
1.1776744933
1.1770197934
1.1768441717
1.1770029770
1.1726711784
1.1724908044
1.1759241571
1.1725894698
1.1775896530
1.1724982773
1.1767852186
1.1756540592
1.1762251713
1.1772618447
1.1762749719
1.1767131191
1.1768471244
1.1724223012
1.1774725345
1.1722845423
1.1768412707
1.1724287571
1.1724143901
1.1777252140
1.1771617007
1.1770998351
1.1733941778
1.1775387196
1.1728520266
1.1723353602
1.1776486701
1.1726223152
1.1771878765
1.1722806860
1.1723049710
1.1773323289
1.1763772486
1.1736073382
1.1761057316
1.1730990860
1.1772393116
1.1723351250
1.1725540204
1.1772039980
1.1768691017
1.1724932484
1.1768661732
1.1770476572
1.1725551893
1.1726733709
1.1771875770
1.1723097644
1.1770190332
1.1771527789
1.1724511304
1.1762744670
1.1741616931
1.1765440209
1.1766306824
1.1737487163
1.1723375928
1.1777259001
1.1780010140
1.1722831986
1.1770979507
1.1761053976
1.1776990484
1.1724168595
1.1771600968
1.1768408416
1.1723349428
1.1768149067
1.1764426936
1.1723795045
1.1775506898
1.1746281072
1.1779059160
1.1723327453
1.1765826663
1.1769610458
1.1724339566
1.1726504780
1.1739885982
1.1772500545
1.1768654683
1.1725447116
1.1727050201
1.1725574897
1.1751404067
1.1771519380
1.1767609683
1.1723502012
1.1724192704
1.1723374217
1.1724721200
1.1779042900
1.1776983656
1.1722606962
1.1781887895
1.1744234194
1.1764419393
1.1766002081
1.1765429086
1.1723557913
1.1724723059
1.1781060232
1.1723004217
1.1756989934
1.1749072681
1.1777241855
1.1769588679
1.1726912181
1.1771496024
1.1774611255
1.1774524245
1.1762771461
1.1726520951
1.1770183038
1.1763167120
1.1722458750
1.1732496936
1.1724393276
1.1727755112
1.1754401009
1.1724746985
1.1760673909
1.1722844524
1.1739022560
1.1724528346
1.1723527878
1.1752469075
1.1723601046
1.1722374332
1.1781894345
1.1723600939
1.1721234067
1.1729894436
1.1725789797
1.1757978617
1.1735533829
1.1724000885
1.1747485540
1.1723582218
1.1721615643
1.1722632140
1.1779422820
1.1764043022
1.1760281838
1.1774590097
1.1785811636
1.1743004819
1.1774499109
1.1782197583
1.1769954467
1.1784694296
1.1787342712
1.1785226916
1.1776180418
1.1767056075
1.1786861402
1.1776807162
1.1784250875
1.1772999439
1.1782281383
1.1787180742
1.1786319184
1.1779459444
1.1749561002
1.1735360297
1.1726145581
1.1722239463
1.1742232466
1.1755973469
1.1724554332
1.1760676004
1.1724419357
1.1722136773
1.1764369439
1.1729982166
1.1723709008
1.1722869505
1.1736687051
1.1726242842
1.1730615973
1.1722024510
1.1744757594
1.1732495331
1.1725662347
1.1722398762
1.1738592282
1.1750894017
1.1723108632
1.1754855924
1.1761584468
1.1727743446
1.1721380439
1.1733427559
1.1725815142
1.1728221778
1.1721258892
1.1783319437
1.1746322945
1.1767738337
1.1773971166
1.1780546842
1.1786741762
1.1772692490
1.1787202993
1.1784140446
1.1790314821
1.1766758138
1.1779758764
1.1790786742
1.1791020059
1.1792881935
1.1740461338
1.1779399783
1.1785443361
1.1779062179
1.1781506783
1.1770845984
1.1777234911
1.1783790231
1.1789171549
1.1769642443
1.1785663094
1.1785236803
1.1787902115
1.1764051433
1.1782316477
1.1791944775
1.1792273517
1.1792788857
1.1784638046
1.1775960339
1.1738608965
1.1728425998
1.1722791833
1.1722162316
1.1725740654
1.1733220539
1.1753025231
1.1767966555
1.1732837650
1.1764379687
1.1728196106
1.1745654597
1.1759489420
1.1739768467
1.1726170463
1.1735585145
1.1727980045
1.1721404966
1.1722610171
1.1730518056
1.1748120420
1.1765123245
1.1730324078
1.1758436073
1.1727767630
1.1741947656
1.1754383487
1.1736288917
1.1724370209
1.1777813309
1.1783396494
1.1784855064
1.1785218313
1.1770667255
1.1798581809
1.1788293768
1.1749784163
1.1790873354
1.1792822448
1.1796581022
1.1796209034
1.1771287014
1.1743705131
1.1791432770
1.1776989814
1.1796292696
1.1789686520
1.1781321792
1.1780256090
1.1788278325
1.1787809388
1.1767753235
1.1798611206
1.1786113771
1.1789890456
1.1791197334
1.1797830064
1.1793748959
1.1774454818
1.1794149014
1.1773772293
1.1797789627
1.1790811981
1.1816194241
1.1796400125
1.1771376084
1.1811647230
1.1736288290
1.1728449034
1.1814932034
1.1820446435
1.1749224554
1.1795574160
1.1762925923
1.1743133987
1.1812668367
1.1815710224
1.1818591814
1.1724426203
1.1756556042
1.1767980883
1.1736243665
1.1742194701
1.1730767289
1.1787614569
1.1786599244
1.1804835536
1.1728482231
1.1804697084
1.1818253087
1.1731355024
1.1814562545
1.1792499816
1.1768509339
1.1808179452
1.1733372258
1.1726350551
1.1812620328
1.1822227140
1.1745541290
1.1800198222
1.1757867330
1.1739528067
1.1816270752
1.1813025069
1.1816054528
1.1722633618
1.1751613881
1.1762005269
1.1733539129
1.1739114641
1.1730346022
1.1784109507
1.1790098345
1.1800944028
1.1724720726
1.1808907142
1.1819822168
1.1730963818
1.1761370101
1.1802322498
1.1774613529
1.1793340608
1.1776021401
1.1802529860
1.1796106383
1.1795521067
1.1746478126
1.1749508825
1.1754206627
1.1804351434
1.1759502389
1.1768888259
1.1781411173
1.1798646819
1.1774426636
1.1767842981
1.1796418153
1.1776499926
1.1790922550
1.1753313856
1.1801554095
1.1747150448
1.1781207848
1.1787927218
1.1764011108
1.1788993161
1.1762449624
1.1799842513
1.1777808730
1.1790880658
1.1778208715
1.1803891465
1.1799109576
1.1796614633
1.1743018545
1.1746051929
1.1757401920
1.1804556813
1.1759119127
1.1770183356
1.1785186867
1.1796902548
1.1771302612
1.1767076343
1.1795210704
1.1773890747
1.1793612269
1.1803328366
1.1777766765
1.1784640833
1.1764526529
1.1792683565
1.1788227111
1.1827621298
1.1805830843
1.1808554133
1.1792095834
1.1795579392
1.1802180898
1.1810847372
1.1739771832
1.1813910703
1.1820392802
1.1808494511
1.1813897043
1.1790093146
1.1746715534
1.1810974445
1.1789036114
1.1786603364
1.1796794274
1.1780316038
1.1800303220
1.1733937194
1.1814265888
1.1818599614
1.1800344829
1.1826125575
1.1810965918
1.1820489970
1.1805883035
1.1726817311
1.1781204301
1.1818260552
1.1760051490
1.1783493590
1.1785691017
1.1830889618
1.1828028778
1.1796800158
1.1812095166
1.1827375894
1.1812673205
1.1820454863
1.1831393602
1.1731375427
1.1771389582
1.1804701790
1.1804794469
1.1821235018
1.1791976906
1.1829999187
1.1807562980
1.1819090022
1.1807690996
1.1788612192
1.1790993117
1.1798195872
1.1815829708
1.1736731367
1.1814941115
1.1824216064
1.1810532950
1.1793558564
1.1743084356
1.1814091631
1.1793016228
1.1782557193
1.1782553817
1.1805615279
1.1733558154
1.1816450290
1.1820060635
1.1803387964
1.1823152540
1.1816768644
1.1803137288
1.1724742405
1.1785049227
1.1804223186
1.1815835399
1.1755149353
1.1780321048
1.1828892013
1.1826095456
1.1800747596
1.1808022368
1.1825588571
1.1808911537
1.1819833187
1.1833476650
1.1729015887
1.1765459978
1.1800202785
1.1808524233
1.1743601299
1.1796898235
1.1834918723
1.1838456966
1.1804586122
1.1750719543
1.1749570001
1.1798409730
1.1759127380
1.1805864883
1.1796837410
1.1785254524
1.1774224707
1.1841758406
1.1734913610
1.1749520575
1.1737647022
1.1801553501
1.1762262442
1.1750423606
1.1840509989
1.1802013544
1.1755292696
1.1820536214
1.1834785014
1.1761377005
1.1754339605
1.1771882730
1.1771887075
1.1758626453
1.1777964125
1.1792459863
1.1836564779
1.1763275015
1.1772156891
1.1729885917
1.1743380450
1.1780841406
1.1802789337
1.1752633331
1.1758022874
1.1768704179
1.1753086426
1.1822591231
1.1740537893
1.1799661063
1.1838206402
1.1836232200
1.1802701792
1.1749270586
1.1795668273
1.1757410947
1.1801847218
1.1781552300
1.1772160204
1.1840569924
1.1732330040
1.1746064612
1.1737353085
1.1802561488
1.1760712747
1.1746875916
1.1841721269
1.1800556787
1.1752643946
1.1825929213
1.1831570924
1.1760631388
1.1754216159
1.1770187244
1.1758781928
1.1754316967
1.1774625615
1.1788937138
1.1837684625
1.1764016667
1.1727570751
1.1743031755
1.1751850613
1.1774521135
1.1808795240
1.1746411172
1.1755282846
1.1763409722
1.1818489576
1.1775374162
1.1734931083
1.1750433862
1.1790094883
1.1729905634
1.1820396016
1.1787397411
1.1774530743
1.1770484287
1.1793296828
1.1769217567
1.1736010444
1.1768824156
1.1826028017
1.1756489428
1.1803160439
1.1756774541
1.1763418494
1.1769303637
1.1803164027
1.1800948659
1.1800305706
1.1763835298
1.1814251558
1.1812629094
1.1788557029
1.1784115453
1.1826035990
1.1765692032
1.1750107945
1.1827625602
1.1813036948
1.1783990325
1.1760853708
1.1788220045
1.1739082262
1.1810850181
1.1808692992
1.1784296891
1.1781702940
1.1822159392
1.1777330626
1.1770364684
1.1812236130
1.1832623877
1.1790102259
1.1820329941
1.1833230996
1.1769228786
1.1761845279
1.1820334756
1.1825116098
1.1743614192
1.1774745319
1.1812617035
1.1744515928
1.1737662732
1.1821094650
1.1773271982
1.1732349047
1.1746887503
1.1785492481
1.1727590350
1.1815832441
1.1784299167
1.1809741182
1.1768713293
1.1770956216
1.1797078947
1.1768045676
1.1733121441
1.1768358088
1.1753141697
1.1761645537
1.1758635110
1.1769329845
1.1794762112
1.1807247046
1.1795079198
1.1768371681
1.1819154186
1.1827881440
1.1827382725
1.1767970729
1.1747272689
1.1824377529
1.1779971824
1.1766726284
1.1738903148
1.1805617590
1.1833224897
1.1785491112
1.1784285137
1.1774512197
1.1768553420
1.1830004450
1.1831718064
1.1764477994
1.1767850196
1.1823725898
1.1831398874
1.1740552083
1.1776284322
1.1816568096
1.1741741729
1.1737369339
1.1807584908
1.1754326136