<VTKFile type="UnstructuredGrid" version="0.1">
	<UnstructuredGrid>
		<Piece NumberOfPoints="1862" NumberOfCells="3498">
			<CellData>
				<DataArray type="Int32" Name="type" NumberOfComponents="1" Format="ascii">
0
0
0
0
0
0
0
0
0
0
0
0
0
0
0
0
1
0
0
1
0
0
0
0
0
0
0
0
0
0
0
0
0
1
0
0
0
0
0
0
0
0
0
0
0
0
0
0
0
0
1
0
0
0
0
0
0
0
0
0
0
1
0
0
0
0
0
0
0
0
0
0
0
0
0
0
0
0
0
0
0
0
0
0
0
0
0
0
0
0
0
0
0
0
0
0
0
0
0
0
0
0
0
0
0
0
0
0
0
0
0
0
0
0
0
0
0
0
0
0
0
0
0
1
0
0
0
0
0
0
0
0
0
0
0
0
0
0
0
0
0
0
0
0
0
0
0
0
0
0
0
1
0
1
1
0
0
0
0
0
0
0
0
0
0
0
0
0
1
0
1
0
0
0
0
1
0
0
0
0
0
0
0
0
1
1
0
0
0
0
0
1
0
0
0
0
0
0
0
0
1
0
0
0
0
0
0
0
0
0
0
0
0
0
0
0
0
0
0
0
0
0
0
0
0
0
0
0
0
0
0
0
0
1
0
0
0
0
0
0
0
0
0
0
0
0
0
0
0
0
0
0
0
0
0
0
0
0
0
0
0
0
0
0
0
0
0
0
0
0
0
0
0
0
0
0
0
0
0
0
0
1
0
0
0
0
0
0
0
0
0
0
0
0
0
0
0
0
0
0
0
0
0
0
0
0
0
0
0
0
0
0
0
0
0
0
0
0
0
0
0
0
0
0
0
0
0
0
0
0
0
0
1
0
0
0
0
0
0
0
0
0
0
0
0
0
0
0
0
0
0
0
0
0
0
0
0
0
0
0
0
0
0
0
0
0
0
0
0
0
0
0
0
0
0
0
0
0
0
0
0
0
0
0
0
0
0
0
0
0
1
0
0
0
0
0
0
0
0
0
0
0
0
0
0
0
0
0
0
0
0
0
0
0
0
0
0
0
0
0
0
0
0
0
0
0
0
0
0
0
0
0
0
0
0
0
0
0
0
0
0
0
0
0
0
0
0
0
0
0
0
0
0
0
0
0
0
0
0
0
0
0
0
0
0
0
0
0
0
0
0
0
0
0
0
0
0
0
0
0
0
0
0
0
0
0
0
0
0
0
0
0
0
0
0
0
0
0
0
0
0
0
0
0
0
0
0
0
0
0
0
0
0
0
0
0
0
0
0
0
0
0
0
1
0
0
0
0
0
0
0
0
0
0
0
0
0
0
0
0
0
0
0
1
0
0
0
0
0
0
0
0
0
0
0
0
0
0
0
0
0
0
0
0
0
0
0
0
0
0
0
0
0
0
0
0
0
0
0
0
0
0
0
0
0
0
0
0
0
0
0
0
0
0
0
0
0
1
0
0
0
0
0
0
0
0
0
0
0
0
0
0
0
0
0
0
0
0
0
0
0
1
0
0
0
0
0
0
0
0
0
0
0
0
0
0
0
0
0
0
0
1
0
0
0
1
0
0
0
0
0
0
0
0
0
0
0
0
0
0
0
0
0
0
0
0
0
0
0
0
0
1
0
0
0
0
0
0
0
1
0
0
0
0
0
0
0
0
0
0
0
0
0
0
0
0
0
0
0
0
0
0
0
0
0
0
1
0
0
0
0
0
0
0
1
0
0
0
0
0
0
1
0
0
0
0
0
0
0
0
0
0
0
0
0
0
0
0
0
0
0
0
0
0
0
0
0
0
0
0
0
0
0
0
0
0
0
0
0
0
1
0
0
0
0
0
1
0
0
0
0
0
0
0
1
0
0
0
0
0
0
0
0
0
0
0
0
0
1
0
0
0
0
0
0
0
0
0
0
0
0
0
0
0
0
0
0
0
0
0
0
0
0
0
0
0
0
0
0
0
0
0
0
0
0
0
0
0
0
0
0
0
0
0
0
0
0
0
0
0
0
0
1
0
0
0
0
0
0
0
0
0
0
0
0
0
0
0
0
0
0
0
1
0
0
0
0
0
0
0
0
0
1
0
0
0
0
0
0
0
0
0
0
0
0
0
0
0
0
0
0
0
0
0
0
0
0
0
0
0
0
0
1
0
1
0
0
0
0
0
0
0
0
0
0
0
0
0
0
0
0
0
0
0
0
0
0
0
0
0
0
0
1
0
0
0
1
0
0
0
0
0
0
0
0
0
0
0
0
0
0
0
0
0
0
0
0
0
0
0
0
0
0
0
0
1
0
0
0
0
0
0
0
0
0
0
0
0
0
0
0
0
0
0
0
0
0
0
0
0
0
1
0
0
0
0
0
0
0
0
0
0
0
0
0
0
0
0
0
0
0
0
0
0
0
1
0
0
0
0
0
0
1
0
0
0
0
0
0
0
0
0
0
0
1
0
0
0
0
0
0
0
0
0
0
0
0
0
0
0
0
0
0
0
0
1
0
0
0
0
0
0
0
0
0
0
0
1
0
0
0
0
0
0
0
0
0
0
0
0
0
0
0
0
0
0
0
0
0
1
0
0
0
0
0
0
0
0
0
1
1
0
1
0
1
0
0
0
0
0
0
0
0
0
0
0
1
0
0
0
0
0
1
1
0
0
0
0
0
0
1
0
0
0
0
0
1
1
1
0
0
0
0
0
0
0
0
0
0
0
0
1
1
0
0
1
0
0
0
0
0
1
0
0
0
1
0
1
0
0
0
0
0
0
0
1
0
0
0
0
0
0
0
1
0
0
1
0
0
0
0
0
0
0
0
0
0
0
0
0
0
0
1
0
0
0
0
0
0
0
0
0
0
0
0
0
0
0
0
0
0
0
0
0
0
0
0
0
0
0
0
0
0
0
0
0
0
0
0
1
0
0
0
0
0
0
1
0
0
0
1
0
0
0
0
0
0
0
0
0
0
0
1
0
0
0
0
0
0
0
0
0
0
0
0
0
0
0
0
0
0
0
0
0
0
0
0
0
0
0
0
0
0
0
0
0
0
0
0
0
0
0
0
1
1
0
0
0
0
0
0
0
0
0
0
0
0
0
1
0
0
0
0
0
0
0
0
0
0
0
0
0
0
0
0
0
0
0
0
0
0
0
0
0
0
0
0
0
0
0
0
0
0
0
0
0
0
0
0
0
0
0
0
0
0
0
0
0
0
0
0
0
0
0
0
0
0
0
0
0
0
0
0
0
0
0
0
0
0
0
0
1
1
0
0
0
0
0
0
0
0
1
0
0
0
0
0
0
0
0
0
0
0
0
0
0
0
0
0
0
0
0
0
0
0
1
0
0
0
0
0
0
0
0
0
0
0
0
0
0
0
0
1
0
0
0
0
0
0
0
0
0
0
0
0
0
0
0
0
0
0
0
0
0
0
0
0
0
0
0
0
0
0
0
0
0
0
0
0
0
0
0
0
0
0
0
0
0
0
0
0
0
0
0
0
0
0
0
0
0
0
0
0
0
0
0
0
0
0
0
0
0
0
0
0
0
0
0
0
0
0
0
0
0
0
0
0
0
0
0
0
0
0
1
1
0
0
0
0
0
1
0
0
0
0
0
0
0
0
0
0
0
0
1
0
0
0
0
0
0
0
0
0
0
0
0
0
0
0
0
0
0
0
0
0
0
0
0
0
0
0
0
0
0
0
0
0
0
0
0
0
0
0
0
0
0
0
0
0
0
0
0
0
0
0
0
0
1
0
1
0
0
0
0
0
0
0
0
0
0
0
0
0
0
0
0
0
0
1
0
0
0
0
0
0
0
0
0
0
0
0
0
0
0
0
0
0
0
0
0
0
0
0
0
0
0
0
0
0
0
0
0
0
0
0
0
0
0
0
0
0
0
0
0
0
0
0
0
0
0
0
0
0
0
0
0
0
0
0
0
0
0
0
0
0
0
0
0
0
1
0
0
0
0
0
0
0
0
0
0
1
0
0
0
0
0
0
0
0
0
0
0
0
0
0
0
0
0
0
0
0
0
0
0
0
0
0
0
0
0
0
0
0
0
0
0
0
0
1
0
0
0
0
0
0
0
0
0
0
0
0
0
0
0
0
0
0
0
0
0
0
0
0
0
0
0
0
0
0
0
0
0
0
0
0
0
0
0
0
0
0
0
0
0
0
0
0
0
0
0
0
0
0
0
0
0
0
0
0
0
0
0
0
0
0
0
0
0
0
0
0
0
0
0
0
0
0
0
0
0
1
0
0
0
0
0
0
0
0
0
0
0
0
0
0
0
0
0
0
0
0
0
0
0
0
0
0
0
0
0
0
0
0
0
0
0
0
0
0
0
0
0
0
0
0
0
0
0
0
0
0
0
0
0
0
0
0
0
0
0
0
0
0
0
0
0
0
0
0
0
0
0
0
0
0
0
0
0
0
0
0
0
0
0
0
0
0
0
0
0
0
0
0
0
0
0
0
0
0
0
0
0
0
0
0
0
0
0
0
0
0
0
0
0
0
0
0
0
0
0
0
0
0
0
1
0
0
0
0
0
0
0
0
0
0
0
0
0
0
0
0
0
0
0
0
0
0
0
0
0
0
0
0
0
0
0
0
0
0
0
0
0
0
0
0
0
0
0
0
0
0
0
0
0
0
0
0
0
0
0
0
0
0
0
0
0
0
0
0
0
0
0
0
0
0
0
0
0
0
0
0
0
0
0
0
0
1
0
0
0
0
0
0
0
1
0
0
0
0
0
0
0
0
0
0
0
0
0
0
0
0
0
0
0
0
0
0
0
0
0
0
0
0
0
0
0
0
0
0
0
0
0
1
0
0
0
0
0
0
0
0
0
0
0
0
0
0
0
0
0
0
0
0
0
1
0
0
0
0
0
0
0
0
0
0
0
0
1
1
0
0
0
0
0
0
0
0
0
0
0
0
0
0
0
1
1
0
1
0
0
0
0
0
0
0
0
0
1
0
0
0
0
0
0
1
0
0
0
0
0
0
0
0
0
0
1
0
0
0
0
1
0
1
0
0
0
0
0
0
0
1
0
0
0
1
0
0
0
1
0
1
1
0
0
1
1
0
0
0
1
0
0
0
1
0
0
0
0
0
0
0
0
0
1
0
0
0
0
0
0
1
0
0
0
0
0
0
0
0
0
0
0
0
0
0
0
0
0
0
0
0
0
0
0
0
0
0
0
1
0
0
1
0
0
0
0
0
0
0
0
0
0
0
0
0
0
0
0
0
0
1
0
0
1
0
0
0
0
0
0
0
0
0
0
0
1
0
0
1
0
0
0
0
0
0
0
0
0
0
0
1
1
0
0
0
0
0
0
0
0
0
0
0
0
1
0
0
0
0
0
0
0
0
0
0
0
0
0
0
0
0
0
1
0
0
0
0
0
0
0
0
0
0
0
0
0
0
0
0
0
1
0
0
0
0
0
0
0
0
0
0
0
0
0
0
0
0
0
0
0
0
0
0
0
0
0
0
0
0
0
0
0
0
0
0
0
0
0
0
0
0
1
0
0
0
0
0
0
0
0
0
0
0
0
0
0
0
0
0
0
0
0
0
0
0
0
0
0
0
0
0
0
0
0
0
0
0
0
0
0
0
0
0
0
0
0
0
1
0
0
0
0
0
0
0
0
0
0
0
0
0
0
0
0
0
0
0
0
0
0
0
0
0
0
0
0
0
0
0
0
0
0
0
0
0
0
0
0
0
0
0
0
0
0
0
1
0
0
0
0
0
0
0
0
0
0
1
0
0
0
0
0
0
0
0
0
0
0
0
0
0
0
1
0
0
1
0
0
0
0
0
0
0
0
0
0
0
0
0
0
0
0
0
0
0
0
0
0
0
1
0
0
0
0
0
0
0
0
0
0
0
0
0
0
0
0
0
0
0
0
0
0
0
0
0
0
0
0
0
0
0
0
0
0
0
1
0
0
0
0
0
0
0
0
0
0
0
0
0
0
0
0
0
0
0
0
0
0
0
0
0
0
0
0
0
0
0
0
0
0
0
0
0
0
0
0
0
0
0
0
0
0
0
0
0
0
0
0
0
0
0
0
0
0
0
0
0
0
0
0
0
0
0
0
0
0
0
0
0
0
0
0
1
0
0
0
0
0
0
0
0
0
0
0
0
0
0
0
0
0
0
0
0
0
0
0
0
0
0
0
0
0
0
0
0
0
0
0
0
0
0
0
1
0
0
0
0
0
0
0
0
0
0
0
0
1
1
0
0
0
0
0
0
0
0
0
0
0
0
0
0
0
0
0
0
0
0
0
0
0
0
0
0
0
0
0
0
0
0
0
0
0
0
0
0
0
0
0
0
0
0
0
0
0
0
0
0
0
0
0
0
0
0
0
0
0
0
0
0
0
0
0
0
0
0
0
0
0
0
0
0
0
0
0
0
0
0
0
0
0
0
0
0
0
0
0
0
0
0
0
0
0
0
0
0
0
0
0
1
0
1
0
0
0
0
0
0
0
1
1
1
1
0
0
0
0
0
0
0
0
0
0
0
0
0
0
0
0
0
0
0
0
0
0
0
0
0
0
0
0
1
1
0
0
0
0
0
0
0
0
0
0
0
0
0
0
0
0
0
0
1
0
0
0
0
0
0
0
1
1
0
1
1
0
0
1
0
0
0
0
0
0
0
1
0
1
0
0
0
0
0
0
0
0
0
0
0
0
0
0
0
0
0
0
0
0
0
0
0
0
0
0
0
1
1
0
0
0
1
1
0
0
0
0
1
0
0
1
0
1
0
0
0
0
0
1
0
0
0
1
0
0
0
0
0
0
0
0
0
0
0
0
0
0
0
0
0
0
0
0
0
0
0
0
0
0
0
1
0
0
0
0
0
0
1
0
0
0
0
0
0
0
0
0
0
0
0
0
0
0
0
0
0
0
0
0
0
0
0
0
0
0
0
0
1
0
1
0
0
0
0
0
0
0
1
0
0
0
0
0
0
0
0
0
0
0
1
0
0
0
0
0
0
0
0
0
1
0
0
0
0
0
0
0
1
0
0
0
0
0
0
0
1
0
0
0
0
0
0
0
0
0
0
0
0
0
0
0
0
0
0
0
1
0
1
0
0
0
0
0
1
0
0
0
0
0
0
0
0
0
0
0
0
0
0
0
0
0
0
0
0
0
0
0
0
0
1
0
1
0
0
0
0
0
0
0
0
0
1
0
0
0
0
0
1
0
0
0
0
0
0
0
0
0
0
0
0
0
0
0
1
0
0
0
0
0
0
0
0
1
0
0
0
0
0
0
0
0
0
0
0
0
0
0
0
0
0
0
0
0
0
0
0
0
0
0
0
0
0
0
1
0
0
0
0
0
0
0
0
0
0
0
0
0
0
0
0
1
0
0
0
0
0
0
0
0
1
0
0
0
0
0
0
0
0
0
1
0
0
0
0
0
1
0
0
0
0
0
0
0
0
0
0
0
0
0
0
0
0
0
0
0
1
0
0
0
0
0
0
1
0
0
0
0
0
0
0
0
1
0
0
0
0
0
0
0
0
0
0
0
0
0
0
1
0
0
1
0
0
0
1
0
0
0
0
0
0
0
0
0
0
0
0
0
0
0
0
1
0
0
0
0
0
0
0
0
0
0
1
0
1
0
0
0
0
0
0
1
0
0
0
0
0
0
0
0
0
0
0
0
0
0
0
0
0
0
0
0
0
0
0
0
0
0
0
1
1
0
0
0
0
0
0
1
0
0
0
0
0
0
0
0
0
0
0
0
0
1
0
0
0
0
0
0
0
1
0
0
0
0
0
0
0
0
0
0
0
0
0
0
0
0
0
0
0
0
0
0
0
0
0
0
0
1
0
0
0
0
0
0
0
0
0
0
1
0
0
1
0
0
0
0
0
0
0
0
0
0
0
0
0
0
0
0
0
0
0
0
0
0
0
0
0
0
0
0
0
1
0
0
0
0
0
0
0
1
0
0
0
0
0
0
0
1
0
0
0
0
1
0
0
0
0
0
0
0
0
0
0
0
1
0
1
0
0
0
1
0
				</DataArray>
				<DataArray type="Float64" Name="h" NumberOfComponents="1" Format="ascii">
1.1099400458
1.1099335724
1.1168974700
1.1171431615
1.1147263067
1.1155947154
1.1159880689
1.1137456276
1.1142805057
1.1127688189
1.1164303136
1.1174259236
1.1083791828
1.1164354825
1.1120999667
1.1025033747
1.1184190908
1.1107022383
1.1084583187
1.1181813358
1.1181342269
1.1032096390
1.1066594008
1.1147499120
1.1182071663
1.1004427046
1.0975898332
1.0966236404
1.1090781475
1.1158627069
1.1178955615
1.1089330677
1.1001999170
1.1180811489
1.1141024985
1.1112579878
1.1175999602
1.1008860495
1.0942912552
1.1162721407
1.1112088095
1.1025124604
1.1006680530
1.1037390322
1.1131258610
1.0995146473
1.1037122421
1.1124059005
1.0833223888
1.0829530156
1.1176141109
1.1062429481
1.1064614268
1.0962050901
1.1083076923
1.0943878386
1.1030877392
1.1105506939
1.1054010744
1.1018634784
1.1072325355
1.1103029542
1.0857404417
1.1086731609
1.1001186811
1.0928118861
1.0823568776
1.0854842321
1.1081728536
1.1115199810
1.1070219646
1.1100394319
1.0944803214
1.0949259919
1.1006719926
1.0834025800
1.1092395838
1.1037868263
1.1125379410
1.0884168230
1.1037610003
1.0921432566
1.0824923466
1.0848298824
1.0867736023
1.0850092353
1.1008006262
1.0833237500
1.0977697100
1.0818280341
1.0952694933
1.0857300234
1.1027161163
1.0808527591
1.0863430548
1.0872288183
1.0822434217
1.0894867751
1.0905410064
1.0997014633
1.0821092333
1.1048506074
1.0876575533
1.1139583347
1.1101605783
1.0811954596
1.0815190151
1.0824825473
1.1017344966
1.0886676828
1.0807970607
1.0815595139
1.0975914852
1.0904220130
1.0889989863
1.0859188696
1.0901474664
1.1125307420
1.0863792098
1.0900599794
1.1116874666
1.0843004789
1.0805384524
1.1152821324
1.0922507834
1.0833380212
1.0913560552
1.1134672497
1.0901203738
1.0843703482
1.0910313820
1.0833542758
1.0921297196
1.0869780727
1.1149056587
1.0898767797
1.0992739364
1.0838892111
1.1000342550
1.0963449495
1.1108399513
1.1160666742
1.0889804717
1.0938152465
1.0824102058
1.0949039954
1.0979964744
1.0769947321
1.1137976256
1.0720234268
1.0991467220
1.0828049631
1.0810316912
1.0684504155
1.1026828797
1.0812252681
1.0698996954
1.1090086101
1.0710777956
1.1107789898
1.0930823038
1.0768970689
1.0968736455
1.1102434627
1.1109943354
1.0806113342
1.0909968122
1.0950516685
1.1136852622
1.0792468624
1.0738337843
1.1127591610
1.0682778335
1.1069832749
1.0878501911
1.0515865182
1.0905826159
1.0805858354
1.0561025127
1.1087004209
1.0819645120
1.0850254700
1.1095374786
1.0787375186
1.1131804895
1.1112590576
1.0879617514
1.0624001378
1.1129045878
1.1113088259
1.0822477462
1.0578310328
1.1102842534
1.0847897278
1.0529829519
1.0806936150
1.1039806162
1.0798045282
1.0817680094
1.0713682735
1.1114051776
1.0780536555
1.1112312009
1.0649422942
1.0778837878
1.1027831645
1.0914820904
1.0959808661
1.0793285945
1.0868738239
1.0796504164
1.1110404858
1.1032118037
1.1024089816
1.0936452540
1.0778197285
1.0893295718
1.1005618324
1.0818996393
1.1073672253
1.0774046212
1.0812553688
1.0843535181
1.0785957600
1.0768236327
1.0812898836
1.0843544173
1.0772974283
1.0764620328
1.0829113282
1.0730370499
1.0797568277
1.0770712452
1.0764436905
1.0841471360
1.0777811887
1.0779773725
1.0842560412
1.1071957103
1.0800643814
1.0758267603
1.0890857469
1.0968062578
1.0838013033
1.0928097126
1.0882021496
1.0998662069
1.0796446752
1.0865635935
1.0941761938
1.0820942649
1.0768525993
1.0975202021
1.0767252620
1.0752363415
1.0962387234
1.0860412788
1.0903621443
1.1024084408
1.0790856807
1.0782890050
1.0756176230
1.0761206542
1.0781760534
1.0762627019
1.0864371108
1.0895670138
1.0756363966
1.0806511332
1.0823211381
1.0877620604
1.0816303289
1.0826978519
1.0768727149
1.0778180434
1.0754659538
1.0757790406
1.0768618134
1.0799979046
1.0760092977
1.0846874406
1.0857788379
1.0847185770
1.0908081499
1.0850242510
1.0807359217
1.0764832716
1.0767417932
1.0933926812
1.0897163318
1.0808858682
1.0750814939
1.0812946335
1.0854415910
1.0739252946
1.0734136004
1.0774927770
1.0788306717
1.0867885967
1.0962377550
1.0890075791
1.0830126420
1.0754987594
1.0739826419
1.0749918722
1.0750892743
1.0731378674
1.0790410205
1.0907047075
1.0754921762
1.0762628237
1.0760084915
1.0898430447
1.0750928418
1.0920219036
1.0794175968
1.0732827488
1.0848419463
1.0975726770
1.0763005382
1.0787557906
1.0753528685
1.0844925163
1.0926400271
1.0755815334
1.0756199932
1.0770057367
1.0925285745
1.0775142952
1.0818904671
1.0879980749
1.0975264532
1.0948042838
1.0755059399
1.0812847082
1.0752398338
1.0881938115
1.0736364535
1.1179181509
1.0688477436
1.0723192088
1.0721553768
1.0859014964
1.0735487194
1.0730329551
1.0694552973
1.0774569573
1.0817672734
1.1121754860
1.0792189781
1.0738617438
1.0883662697
1.0752707757
1.0829177515
1.1211175764
1.0687690659
1.0814532112
1.0708235780
1.0726011373
1.0986878932
1.1001857599
1.1253718672
1.0890068506
1.0727572006
1.0744623030
1.0709082874
1.0796594550
1.0802887584
1.0812243077
1.0810117979
1.0864784173
1.1111963671
1.0785966061
1.1050560962
1.0807265485
1.0802056799
1.0989783143
1.0449933029
1.0968260180
1.0761550876
1.0754976377
1.0879602959
1.0985857071
1.0695923130
1.0874800899
1.0722436309
1.0754769576
1.0766131813
1.0767247393
1.0589966121
1.1032033304
1.0762867528
1.0782305640
1.0806076405
1.1040742347
1.0834143765
1.0330091062
1.0408077551
1.0460224992
1.0749441903
1.0762027608
1.0921453327
1.0705952555
1.0840380759
1.0782659446
1.1000792515
1.0921007418
1.0754713398
1.0757715462
1.0652179397
1.0779923256
1.0793383671
1.0902891552
1.0808523246
1.0669475139
1.1166243111
1.1016345566
1.0680795243
1.0939076035
1.0776505585
1.0813065537
1.0798276300
1.0692272669
1.1065262690
1.1244721737
1.0817646731
1.1135700829
1.0776486803
1.1044355191
1.0731848397
1.0797094930
1.1279260246
1.0913383583
1.1171063730
1.0832113167
1.0840666821
1.1194963389
1.0958730386
1.1111098270
1.0827261133
1.0823680893
1.0909024640
1.0676442577
1.1058802840
1.0829220747
1.0671343107
1.0780600384
1.0845302642
1.0854576800
1.1084447796
1.0942185602
1.1137320362
1.0810115646
1.0777532455
1.0713550555
1.0798278374
1.1340054697
1.1215921201
1.0851229657
1.1297968769
1.0744475357
1.0748670292
1.0611885598
1.1066027145
1.0695712144
1.0828247182
1.0793377798
1.0763338970
1.0788294517
1.0611196621
1.1052078004
1.0653710759
1.0917365135
1.0711041386
1.0765544063
1.0777206433
1.1361737739
1.0640531815
1.0688871628
1.0398253939
1.0373435424
1.0759176873
1.0605445439
1.1071459077
1.1257853293
1.1290846994
1.0967971390
1.0376924012
1.0797305685
1.0373495325
1.0845318748
1.0763993032
1.1402808920
1.0655600858
1.0330080782
1.0523713695
1.0628997860
1.1363427914
1.0869237549
1.0276384147
1.1008458345
1.1152676400
1.0568724437
1.0460209159
1.0749454306
1.0682252312
1.0766727488
1.0725301812
1.0776352178
1.0863200555
1.0377011674
1.0737259325
1.0926565450
1.0653720303
1.0837687134
1.0688906878
1.0968385045
1.0824085936
1.0642499814
1.0626245042
1.0737286315
1.0831020966
1.0836293444
1.1231895671
1.0570631176
1.1120942988
1.0060525343
1.0868171091
1.0829172675
1.0732365019
1.1010173044
1.0611876921
1.0888020193
1.0564195154
1.0611212098
1.0787828632
1.0655638347
1.0628994555
1.0725329518
1.0829168758
1.0759198328
1.0751006206
1.0466767121
1.0681536160
1.0635877028
1.0593861016
1.0184192023
1.0711068541
1.0700705747
1.0370108988
1.1319746769
1.0557405794
1.0560268561
1.0828460925
1.0608214414
1.0836454509
1.0759606798
1.0275545455
1.1155669155
1.1261118068
1.0699455239
1.0192459001
1.1216003589
1.0605445806
1.0812982095
1.0958948535
1.0682269193
1.0793318169
1.0891509874
1.1137449468
1.0662940984
1.0856283561
1.1069466811
1.0881875310
1.0776492271
1.0549235460
1.0779996001
1.0842905362
1.0926571533
1.0710261897
1.0567805959
1.0854535780
1.1008490786
0.9887160901
1.0850024031
1.0485176737
1.1111309960
1.0902970648
1.0780569465
1.0349785774
1.1135902583
1.0804935871
1.0490769122
1.0820202376
1.0471663227
1.0777523663
1.0747619705
1.0591617885
1.1383921870
1.0701897027
1.0813613835
1.0665628228
1.1334713579
1.0525567560
1.0817567977
1.0557525683
1.0747322613
1.1271174125
1.1016667842
0.9904923058
1.0700592219
1.0492281751
1.1198609678
1.0193423060
1.0842906028
1.0496501814
1.0896469081
1.0564215877
1.0662964769
1.0732389320
1.0570631752
1.1323766256
1.0839766843
1.0514936264
1.0642535389
1.0616574185
1.0376570569
1.1314952013
1.0608248768
1.0584275590
1.0747320395
1.0452751176
1.0637894317
1.0759623778
1.0626267013
1.0699485672
1.0560278554
1.1147743994
1.1371247096
1.1020662690
1.0865558619
1.0681573059
1.0718408119
1.0781246156
1.0731465231
1.1390622216
1.1114692725
1.0828463632
1.0638126724
1.1326345317
1.0728030339
1.0587382808
1.0501778075
1.0464863007
1.0939749395
1.0689468404
1.0764919072
1.0593863336
1.1055117701
1.0536054370
1.0545702831
1.0456950149
1.0947974959
1.1238349122
1.1407755325
1.0973610935
1.0321476141
1.0640302972
1.0470239469
1.0492842587
1.1413325850
1.1437631372
1.0787820413
1.0682397141
1.0770327905
1.0522262070
1.1154507600
1.0567643568
1.0602319150
1.1467152710
1.1418173040
1.0670552979
1.0635697093
1.1219916600
1.0600590118
1.0607383228
1.0638687000
1.1333913688
1.1445696608
1.1393811781
1.0504457473
1.0388567848
1.0590873442
1.0376903641
1.0472250497
1.1306828137
1.1379315440
1.1108325987
1.1212983260
1.0905872409
1.1428644025
1.1463828869
1.0264255870
1.1371224302
1.1280466256
0.9905417619
1.1479786111
1.0557465695
1.1422513502
1.0211584714
1.0331378248
1.1478477457
1.0194119193
1.1454895856
1.1454480876
1.0192282944
1.1428475225
1.0029183259
0.9738076862
1.1386911308
1.1426777278
1.0260000745
1.1111088186
1.1131731047
1.1131712220
1.1111025664
1.1166319781
1.1174179398
1.1164278919
1.1144539773
1.1129570908
1.1155875548
1.1147312086
1.1129588127
1.1142840671
1.1121045702
1.1159835553
1.1139380854
1.1144539519
1.1166381000
1.1097354754
1.1107069074
1.1171465307
1.1169051447
1.1084670939
1.1158616145
1.1057467387
1.1182390592
1.1137431156
1.1004454139
1.1182028438
1.1127646988
1.1056404163
1.1083688751
1.1168267511
1.0996075625
1.1062023416
1.1139366183
1.1178932163
1.1097296430
1.1180712060
1.1002085677
1.1089372531
1.0972201527
1.1162616755
1.0917859004
1.1184252805
1.1024932130
1.1006641132
1.0942542373
1.1182476769
1.1057405509
1.1112061884
1.1164366541
1.1181837853
1.1168371366
1.1066535140
1.1107257658
1.1032020630
1.1159528493
1.1056304827
1.1181454572
1.1061939615
1.1034979261
1.0962835196
1.1124006071
1.0996001930
1.1131214635
1.1176023987
1.1037085053
1.0966427692
1.1147571458
1.1090778469
1.1030797155
1.0936899004
1.0975901709
1.1150185981
1.1077061081
1.0918214556
1.1051623236
1.1161067451
1.0972185918
1.1064567644
1.1107246612
1.0821196141
1.0871996456
1.1034924527
1.1159623230
1.1130985205
1.0962999997
1.1112574512
1.1000994964
1.1008962778
1.1093248195
1.1141096137
1.0857619817
1.0855027261
1.0991684300
1.1176123117
1.1086727526
1.1051577488
1.1084624885
1.1066617677
1.1037464814
1.0949527870
1.0997106026
1.1100380545
1.0944636754
1.1100784919
1.0907461902
1.0974110693
1.1150257124
1.1086309729
1.1161194807
1.1025106481
1.1092413390
1.1070257589
1.0971851493
1.1006875210
1.0937246361
1.0975319780
1.1081691106
1.1166602532
1.1077015152
1.1115088634
1.1131018047
1.1093195169
1.0903770925
1.0991689278
1.0867585735
1.1062593095
1.0816213994
1.0833007662
1.1062421786
1.0871727265
1.0995331186
1.0921394428
1.0848384290
1.0983317223
1.0821046522
1.0829344584
1.1072356190
1.1103133018
1.0975502810
1.1048488813
1.0971583910
1.1053926129
1.1048846445
1.0996941596
1.0841473548
1.0911699798
1.1084586261
1.1166732590
1.1042470923
1.1083036031
1.1065001444
1.1100843318
1.1086390901
1.0943941306
1.0947760791
1.1026861737
1.0907769146
1.0961832620
1.1066525066
1.1018457851
1.0856952808
1.1105526508
1.0974395363
1.1027221526
1.0867384706
1.1139477256
1.0905068727
1.0983205524
1.0877197326
1.1062492704
1.1048424706
1.0811717005
1.0999069301
1.0858105364
1.0928267592
1.0821069505
1.0823481622
1.1153900127
1.0894466921
1.1070043266
1.0871999196
1.1008828278
1.0816122446
1.0997053452
1.0811940002
1.0904059654
1.0820014101
1.0947667936
1.1017458751
1.0815633237
1.1048483455
1.1026729591
1.0976045509
1.1042349802
1.0834264252
1.0798962188
1.1048712177
1.1037779718
1.0911880892
1.0964289454
1.0841681699
1.0808034948
1.0886572900
1.1064965116
1.0998992425
1.0820117708
1.0937235503
1.1070139574
1.0850404438
1.0842916045
1.0958691397
1.1154024297
1.1069788174
1.1008688806
1.0858043303
1.0868039816
1.0884552660
1.1008025944
1.0825035620
1.1037643756
1.0901544759
1.1125421704
1.0811709400
1.1116870409
1.0833274553
1.0877438739
1.0964215581
1.0833337743
1.0800702647
1.1049039080
1.0833535863
1.0960443751
1.0918585229
1.0977478681
1.0863617190
1.0808561045
1.0842980663
1.0818355239
1.0952571883
1.0855662086
1.1131028061
1.0922755021
1.0913786055
1.0798979791
1.0843740218
1.0876595784
1.0826241956
1.0791324362
1.0937069526
1.1069770148
1.0958403385
1.0871496002
1.1149036325
1.0898860153
1.0921585236
1.1101570327
1.0822555375
1.0823846781
1.0794879028
1.1160660015
1.0905526085
1.1049030704
1.0842927921
1.0904012235
1.0824692368
1.1027306748
1.1131137366
1.0918410035
1.0889846291
1.1137961901
1.0800666518
1.0889825577
1.1145728786
1.0859165015
1.0960244674
1.0949074640
1.0855499061
1.0815392127
1.1145973717
1.0812054477
1.0785801160
1.0788837922
1.0826208734
1.0871260620
1.1017844981
1.0874832416
1.0824250209
1.0992107200
1.0900317336
1.0791350330
1.0828111791
1.1125305139
1.0959933820
1.0863639594
1.1155990144
1.0991453429
1.0810336576
1.1026772473
1.1027257973
1.1145736000
1.0950596792
1.1109924774
1.0905236742
1.0738457282
1.1145988379
1.1125592846
1.0753983113
1.0798606176
1.0794904580
1.1152824715
1.0901220968
1.0930897751
1.1124383565
1.0805516863
1.0910227915
1.1171938511
1.0968790565
1.0937098376
1.0768920321
1.1134680987
1.0710796045
1.0992118479
1.0992682193
1.0869757935
1.0780537748
1.0785054591
1.0824197078
1.0842095382
1.0838867073
1.0682873016
1.1175359279
1.1043631455
1.1000375611
1.1156002419
1.0785837250
1.1017849592
1.0788728425
1.0812179731
1.0959927735
1.0792451057
1.0941133331
1.0874842730
1.0738427920
1.1069813744
1.0720222410
1.1095360865
1.0796340436
1.1124392158
1.1125609969
1.0815560698
1.0755183397
1.0667317105
1.0938064894
1.0769994841
1.0979846482
1.1086990398
1.0754018881
1.1171948379
1.0798672261
1.1076837198
1.1108405798
1.0819617258
1.0937116113
1.0905821753
1.0971820905
1.0963303308
1.0738434880
1.1112206931
1.1129041461
1.0812265126
1.0698888515
1.1043647916
1.0784673279
1.0780538742
1.1165757169
1.1175378089
1.0785117371
1.1131801509
1.0842089791
1.0684328500
1.1090082199
1.0941182900
1.0879424294
1.0793418743
1.0529921124
1.0910021441
1.1112220418
1.0815618168
1.0806828285
1.1076849189
1.0667294853
1.0971887697
1.0791456191
1.1116735579
1.0755144899
1.0796460338
1.1124927558
1.0578308691
1.0906316619
1.1102447304
1.0806159462
1.0847667508
1.0777829872
1.1107796947
1.0780478240
1.0582215059
1.1127592489
1.1112313851
1.0878591723
1.0649528010
1.0784764665
1.1136851683
1.1114054288
1.1165768078
1.0817500336
1.0621501466
1.0560930035
1.1063812904
1.1116739841
1.1124938394
1.1110405380
1.0777847058
1.0791532227
1.1057779111
1.0822694209
1.0850406760
1.0906330636
1.0515785263
1.0793554581
1.1102534353
1.1108899709
1.0805924722
1.1032104976
1.0793186810
1.0822623157
1.0730521289
1.0582084281
1.1113085186
1.0621330026
1.0694914557
1.0671267339
1.0787438470
1.1112583840
1.0623912848
1.0774007827
1.0998649339
1.0882103968
1.1012595056
1.0928117322
1.0798139092
1.1108897875
1.0765033998
1.1089164470
1.0838003090
1.0982906607
1.1063831565
1.0779714106
1.1102843797
1.1088605096
1.0822845659
1.1039815799
1.1049729468
1.0903687756
1.0952094960
1.0767230188
1.0860465926
1.0975186269
1.0796363279
1.1102531183
1.1071948365
1.1057784726
1.0769512330
1.0758988882
1.0778885681
1.0694819980
1.0807123049
1.0816234066
1.0671029039
1.0778117268
1.0760116103
1.0847267599
1.0846587205
1.0849925207
1.0764836578
1.0756389726
1.0826689401
1.0713368731
1.0790709337
1.0762642695
1.0806814551
1.0861535337
1.0864224690
1.0768713567
1.0796601622
1.0808914451
1.0916233634
1.1073683937
1.0774922709
1.0750790762
1.0982916364
1.0765044521
1.1012588500
1.1051112795
1.0750202217
1.0854438033
1.0933909227
1.1089169175
1.0868687909
1.0959773488
1.0914679651
1.1027831286
1.0819100077
1.0830177938
1.0907028417
1.1088606544
1.0790441798
1.0754954235
1.1005613462
1.0778249823
1.0749902458
1.0880561461
1.0994950692
1.0893164592
1.0952084860
1.0936353169
1.1049725058
1.0797684757
1.0762975189
1.0751469949
1.0752427302
1.0756278289
1.0775132610
1.0770748834
1.0861773554
1.0841491998
1.0925298845
1.0764606446
1.0764132104
1.0899460909
1.0818545408
1.0879515987
1.0843585348
1.0769409395
1.0829336787
1.0777854564
1.0786027631
1.0750924806
1.0753586850
1.0762695957
1.0794005817
1.0768241515
1.0843774866
1.0850109756
1.0898732370
1.0758983891
1.0812665992
1.0926204746
1.0847940394
1.0908105441
1.0812730303
1.0773010536
1.0736386127
1.0839842545
1.0968045261
1.1051117225
1.0858991011
1.0842438736
1.0758307137
1.0747054225
1.0774570012
1.0750215873
1.0890794796
1.0721548702
1.0735451065
1.0800612162
1.0916222660
1.0752727407
1.0829149263
1.0994943907
1.0927715891
1.0865531536
1.0768574715
1.0744579605
1.0800598591
1.0752381849
1.0880540503
1.0726022402
1.0727544380
1.0820848749
1.0941745290
1.0754703999
1.0768595837
1.0757797226
1.0857448264
1.0754635030
1.0920889734
1.0800193979
1.0722417783
1.0850669355
1.0908448275
1.0953875384
1.1000697645
1.0753787477
1.0782916165
1.0782369128
1.0757738142
1.0840042207
1.0908137281
1.0754801614
1.0761156026
1.0766241995
1.0895468646
1.0751494602
1.0960141379
1.0781827939
1.0823572486
1.0877999463
1.0989527079
1.0986012103
1.0754940737
1.0807166643
1.0756133176
1.0879071789
1.0899730314
1.1166029206
1.0797116976
1.0752910403
1.0939038227
1.0767338489
1.0839831679
1.1193466497
1.1171668881
1.0680798727
1.0804174309
1.0731808159
1.0739231294
1.0924153884
1.1065083766
1.1232662910
1.0897136354
1.0734167988
1.0747105975
1.0692273301
1.0669493365
1.0812889902
1.0793385081
1.0805302408
1.0840720290
1.0776466454
1.0835589472
1.1053917880
1.0756519172
1.1121090249
1.0788313167
1.0748631868
1.0892210349
1.0788230167
1.0867861862
1.1199590728
1.1216122682
1.0671358894
1.0813687862
1.0713523228
1.0750835663
1.0975383341
1.1009389328
1.1231745063
1.0927706562
1.0731404264
1.0739863073
1.0715622868
1.0676453012
1.0800588569
1.0789956966
1.0809568024
1.0814874960
1.0851180745
1.0872443929
1.1117664793
1.0744441705
1.0621729820
1.1071325171
1.0763001879
1.0813035342
1.0799763175
1.1010561440
1.0797403100
1.0975406583
1.0398265716
1.0339811743
1.0445198437
1.0967478346
1.0373465430
1.0727546232
1.0763980944
1.0960568267
1.0755070372
1.0728159641
1.0882476613
1.0795925253
1.0947745414
1.0695700438
1.0869032442
1.0732836450
1.0755750230
1.0769961857
1.0607289330
1.0766778519
1.0568717035
1.1066021899
1.0765521033
1.0787553294
1.0813598635
1.1051828595
1.0828242578
1.0954236479
1.0446037239
1.0389195712
1.0351698686
1.1014719152
1.0414575608
1.0751357724
1.0763348486
1.0920712923
1.0753836880
1.0701836957
1.0845336373
1.0788281521
1.0975662254
1.0916955102
1.0754897943
1.0759985378
1.0640516301
1.0777303193
1.0787587909
1.1135228880
1.0910064310
1.1066931816
1.0824085139
1.0804157171
1.0831028708
1.0874571634
1.0694506208
1.1159707026
1.0984305338
1.1018695166
1.1159546809
1.0830238280
1.0688461815
1.0948261492
1.0773654071
1.0805296099
1.0796180616
1.0791668729
1.0832705722
1.0730290127
1.1069378384
1.1232762682
1.0822658024
1.1155624423
1.0948195981
1.1010139362
1.1118569809
1.0817635302
1.0775263309
1.1054005233
1.0723233614
1.0796592267
1.0813066836
1.1319676887
1.1260985410
1.0796143244
1.0888043858
1.1289399170
1.0924113620
1.1171806188
1.1259365603
1.0756524594
1.0752963329
1.0835550147
1.0846774344
1.1244543487
1.0792174590
1.1204228554
1.0964339099
1.1044275015
1.1102523329
1.0819199256
1.0802880417
1.0819426825
1.0920965522
1.0709034671
1.1193518323
1.1041865303
1.1069201034
1.0835566893
1.0687655133
1.1001886122
1.0780070169
1.0807359203
1.0807360713
1.0846126244
1.0715635472
1.1121871831
1.1211349714
1.0861449667
1.1096342686
1.0955364688
1.1107693712
1.0851172692
1.0773228935
1.0832132526
1.0986881970
1.0708262294
1.0791673215
1.1323659596
1.1217971309
1.0812186472
1.0855969444
1.1300163550
1.0872409310
1.1117823299
1.1300503312
1.0785939226
1.0738667640
1.0813665321
1.0883575967
1.0627966740
1.1031886951
1.1198585062
1.1334638793
1.1015142085
1.0695929994
1.0373422740
1.0834230445
1.0414605825
1.0856281298
1.0795666909
1.0761989302
1.0782663222
1.1383884010
1.0669538912
1.0339816842
1.0646507385
1.1040930250
1.0531244977
1.0650454138
1.1326301362
1.0921480874
1.0316033112
1.0956954046
1.1229230600
1.0621800547
1.0408046670
1.0767143066
1.0767147278
1.0698140498
1.0762889886
1.0779808255
1.1354374930
1.0652203119
1.0769627578
1.0732056945
1.0449823591
1.0779994216
1.0849421235
1.0313420948
1.0310231755
1.0746102318
1.0282747469
1.0990794324
1.0632037627
1.1050630784
1.1271152260
1.1295548077
1.0968745043
1.0403083546
1.0801987232
1.0351679782
1.0842952835
1.0761549855
1.0769613990
1.1390553045
1.0698666182
1.0389201231
1.0628657243
1.1010939250
1.0490711050
1.0634589662
1.1363134448
1.0875110599
1.0313377899
1.1030316662
1.1169598506
1.0589949827
1.0445174801
1.0751360503
1.0558930591
1.0672769896
1.0763038133
1.0767160953
1.1374026067
1.0607328318
1.0768301626
1.0445961668
1.0412110702
1.0764940794
1.0867352227
1.0417347784
1.0316088184
1.0723393275
1.0941035212
1.0806740421
1.0669562509
1.0650453016
1.0830235738
1.0732081468
1.0984292835
1.0827260884
1.0764970662
1.0727701838
1.0817222893
1.0400546649
1.0597577038
1.0596075004
1.1257338902
1.0640320855
1.0830799310
1.0212352528
1.0723430255
1.0730053416
1.0830780331
1.0814818781
1.0832695910
1.0413781658
1.1069160231
1.1199776570
1.0837684461
1.0789963555
1.1257446289
1.0595729685
1.0566349121
1.1135266229
1.1009548027
1.0838294301
1.0154026118
1.0787592471
1.0581145974
1.0874548830
1.0864735458
1.0821008310
1.0831574485
1.1170879150
1.0780582336
1.0162729033
1.1179365388
1.1256086077
1.0809554206
1.1024241223
1.1328413357
1.0749119359
1.0241346292
1.1024262825
1.1163177752
1.0627958282
1.0800422703
1.0897666405
1.0534331164
1.0646524068
1.1111985728
1.0794249030
1.0698702907
1.0634577249
1.0831098517
1.0768309506
1.0920947386
1.0821004118
1.0868168248
1.0746134080
1.0756782620
1.0823670843
1.0446250998
1.0637388089
1.0635608716
1.0600532952
1.0090207868
1.0698168011
1.0704611883
1.0808529504
1.0851194551
1.0829220282
1.0331476126
1.1253822703
1.1120823110
1.1289459111
1.0549188342
1.0542967804
1.1058808045
1.0834351998
0.9988231595
1.0564148971
1.0846120861
1.1328290965
1.0831099145
1.0841470015
1.0773589073
1.0211490718
1.1204273153
1.1298058663
1.0717837222
1.0100709211
1.1084391460
1.1259419680
1.0632042879
1.0819320921
1.0942114386
1.0541876121
1.0628685950
1.0964678281
1.0672783906