<VTKFile type="UnstructuredGrid" version="0.1">
	<UnstructuredGrid>
		<Piece NumberOfPoints="1862" NumberOfCells="3498">
			<CellData>
				<DataArray type="Int32" Name="type" NumberOfComponents="1" Format="ascii">
0
0
0
0
0
0
0
0
0
0
0
0
0
0
0
0
1
0
0
1
0
0
0
0
0
0
0
0
0
0
0
0
0
1
0
0
0
0
0
0
0
0
0
0
0
0
0
0
0
0
1
0
0
0
0
0
0
0
0
0
0
1
0
0
0
0
0
0
0
0
0
0
0
0
0
0
0
0
0
0
0
0
0
0
0
0
0
0
0
0
0
0
0
0
0
0
0
0
0
0
0
0
0
0
0
0
0
0
0
0
0
0
0
0
0
0
0
0
0
0
0
0
0
1
0
0
0
0
0
0
0
0
0
0
0
0
0
0
0
0
0
0
0
0
0
0
0
0
0
0
0
1
0
1
1
0
0
0
0
0
0
0
0
0
0
0
0
0
1
0
1
0
0
0
0
1
0
0
0
0
0
0
0
0
1
1
0
0
0
0
0
1
0
0
0
0
0
0
0
0
1
0
0
0
0
0
0
0
0
0
0
0
0
0
0
0
0
0
0
0
0
0
0
0
0
0
0
0
0
0
0
0
0
1
0
0
0
0
0
0
0
0
0
0
0
0
0
0
0
0
0
0
0
0
0
0
0
0
0
0
0
0
0
0
0
0
0
0
0
0
0
0
0
0
0
0
0
0
0
0
0
1
0
0
0
0
0
0
0
0
0
0
0
0
0
0
0
0
0
0
0
0
0
0
0
0
0
0
0
0
0
0
0
0
0
0
0
0
0
0
0
0
0
0
0
0
0
0
0
0
0
0
1
0
0
0
0
0
0
0
0
0
0
0
0
0
0
0
0
0
0
0
0
0
0
0
0
0
0
0
0
0
0
0
0
0
0
0
0
0
0
0
0
0
0
0
0
0
0
0
0
0
0
0
0
0
0
0
0
0
1
0
0
0
0
0
0
0
0
0
0
0
0
0
0
0
0
0
0
0
0
0
0
0
0
0
0
0
0
0
0
0
0
0
0
0
0
0
0
0
0
0
0
0
0
0
0
0
0
0
0
0
0
0
0
0
0
0
0
0
0
0
0
0
0
0
0
0
0
0
0
0
0
0
0
0
0
0
0
0
0
0
0
0
0
0
0
0
0
0
0
0
0
0
0
0
0
0
0
0
0
0
0
0
0
0
0
0
0
0
0
0
0
0
0
0
0
0
0
0
0
0
0
0
0
0
0
0
0
0
0
0
0
1
0
0
0
0
0
0
0
0
0
0
0
0
0
0
0
0
0
0
0
1
0
0
0
0
0
0
0
0
0
0
0
0
0
0
0
0
0
0
0
0
0
0
0
0
0
0
0
0
0
0
0
0
0
0
0
0
0
0
0
0
0
0
0
0
0
0
0
0
0
0
0
0
0
1
0
0
0
0
0
0
0
0
0
0
0
0
0
0
0
0
0
0
0
0
0
0
0
1
0
0
0
0
0
0
0
0
0
0
0
0
0
0
0
0
0
0
0
1
0
0
0
1
0
0
0
0
0
0
0
0
0
0
0
0
0
0
0
0
0
0
0
0
0
0
0
0
0
1
0
0
0
0
0
0
0
1
0
0
0
0
0
0
0
0
0
0
0
0
0
0
0
0
0
0
0
0
0
0
0
0
0
0
1
0
0
0
0
0
0
0
1
0
0
0
0
0
0
1
0
0
0
0
0
0
0
0
0
0
0
0
0
0
0
0
0
0
0
0
0
0
0
0
0
0
0
0
0
0
0
0
0
0
0
0
0
0
1
0
0
0
0
0
1
0
0
0
0
0
0
0
1
0
0
0
0
0
0
0
0
0
0
0
0
0
1
0
0
0
0
0
0
0
0
0
0
0
0
0
0
0
0
0
0
0
0
0
0
0
0
0
0
0
0
0
0
0
0
0
0
0
0
0
0
0
0
0
0
0
0
0
0
0
0
0
0
0
0
0
1
0
0
0
0
0
0
0
0
0
0
0
0
0
0
0
0
0
0
0
1
0
0
0
0
0
0
0
0
0
1
0
0
0
0
0
0
0
0
0
0
0
0
0
0
0
0
0
0
0
0
0
0
0
0
0
0
0
0
0
1
0
1
0
0
0
0
0
0
0
0
0
0
0
0
0
0
0
0
0
0
0
0
0
0
0
0
0
0
0
1
0
0
0
1
0
0
0
0
0
0
0
0
0
0
0
0
0
0
0
0
0
0
0
0
0
0
0
0
0
0
0
0
1
0
0
0
0
0
0
0
0
0
0
0
0
0
0
0
0
0
0
0
0
0
0
0
0
0
1
0
0
0
0
0
0
0
0
0
0
0
0
0
0
0
0
0
0
0
0
0
0
0
1
0
0
0
0
0
0
1
0
0
0
0
0
0
0
0
0
0
0
1
0
0
0
0
0
0
0
0
0
0
0
0
0
0
0
0
0
0
0
0
1
0
0
0
0
0
0
0
0
0
0
0
1
0
0
0
0
0
0
0
0
0
0
0
0
0
0
0
0
0
0
0
0
0
1
0
0
0
0
0
0
0
0
0
1
1
0
1
0
1
0
0
0
0
0
0
0
0
0
0
0
1
0
0
0
0
0
1
1
0
0
0
0
0
0
1
0
0
0
0
0
1
1
1
0
0
0
0
0
0
0
0
0
0
0
0
1
1
0
0
1
0
0
0
0
0
1
0
0
0
1
0
1
0
0
0
0
0
0
0
1
0
0
0
0
0
0
0
1
0
0
1
0
0
0
0
0
0
0
0
0
0
0
0
0
0
0
1
0
0
0
0
0
0
0
0
0
0
0
0
0
0
0
0
0
0
0
0
0
0
0
0
0
0
0
0
0
0
0
0
0
0
0
0
1
0
0
0
0
0
0
1
0
0
0
1
0
0
0
0
0
0
0
0
0
0
0
1
0
0
0
0
0
0
0
0
0
0
0
0
0
0
0
0
0
0
0
0
0
0
0
0
0
0
0
0
0
0
0
0
0
0
0
0
0
0
0
0
1
1
0
0
0
0
0
0
0
0
0
0
0
0
0
1
0
0
0
0
0
0
0
0
0
0
0
0
0
0
0
0
0
0
0
0
0
0
0
0
0
0
0
0
0
0
0
0
0
0
0
0
0
0
0
0
0
0
0
0
0
0
0
0
0
0
0
0
0
0
0
0
0
0
0
0
0
0
0
0
0
0
0
0
0
0
0
0
1
1
0
0
0
0
0
0
0
0
1
0
0
0
0
0
0
0
0
0
0
0
0
0
0
0
0
0
0
0
0
0
0
0
1
0
0
0
0
0
0
0
0
0
0
0
0
0
0
0
0
1
0
0
0
0
0
0
0
0
0
0
0
0
0
0
0
0
0
0
0
0
0
0
0
0
0
0
0
0
0
0
0
0
0
0
0
0
0
0
0
0
0
0
0
0
0
0
0
0
0
0
0
0
0
0
0
0
0
0
0
0
0
0
0
0
0
0
0
0
0
0
0
0
0
0
0
0
0
0
0
0
0
0
0
0
0
0
0
0
0
0
1
1
0
0
0
0
0
1
0
0
0
0
0
0
0
0
0
0
0
0
1
0
0
0
0
0
0
0
0
0
0
0
0
0
0
0
0
0
0
0
0
0
0
0
0
0
0
0
0
0
0
0
0
0
0
0
0
0
0
0
0
0
0
0
0
0
0
0
0
0
0
0
0
0
1
0
1
0
0
0
0
0
0
0
0
0
0
0
0
0
0
0
0
0
0
1
0
0
0
0
0
0
0
0
0
0
0
0
0
0
0
0
0
0
0
0
0
0
0
0
0
0
0
0
0
0
0
0
0
0
0
0
0
0
0
0
0
0
0
0
0
0
0
0
0
0
0
0
0
0
0
0
0
0
0
0
0
0
0
0
0
0
0
0
0
0
1
0
0
0
0
0
0
0
0
0
0
1
0
0
0
0
0
0
0
0
0
0
0
0
0
0
0
0
0
0
0
0
0
0
0
0
0
0
0
0
0
0
0
0
0
0
0
0
0
1
0
0
0
0
0
0
0
0
0
0
0
0
0
0
0
0
0
0
0
0
0
0
0
0
0
0
0
0
0
0
0
0
0
0
0
0
0
0
0
0
0
0
0
0
0
0
0
0
0
0
0
0
0
0
0
0
0
0
0
0
0
0
0
0
0
0
0
0
0
0
0
0
0
0
0
0
0
0
0
0
0
1
0
0
0
0
0
0
0
0
0
0
0
0
0
0
0
0
0
0
0
0
0
0
0
0
0
0
0
0
0
0
0
0
0
0
0
0
0
0
0
0
0
0
0
0
0
0
0
0
0
0
0
0
0
0
0
0
0
0
0
0
0
0
0
0
0
0
0
0
0
0
0
0
0
0
0
0
0
0
0
0
0
0
0
0
0
0
0
0
0
0
0
0
0
0
0
0
0
0
0
0
0
0
0
0
0
0
0
0
0
0
0
0
0
0
0
0
0
0
0
0
0
0
0
1
0
0
0
0
0
0
0
0
0
0
0
0
0
0
0
0
0
0
0
0
0
0
0
0
0
0
0
0
0
0
0
0
0
0
0
0
0
0
0
0
0
0
0
0
0
0
0
0
0
0
0
0
0
0
0
0
0
0
0
0
0
0
0
0
0
0
0
0
0
0
0
0
0
0
0
0
0
0
0
0
0
1
0
0
0
0
0
0
0
1
0
0
0
0
0
0
0
0
0
0
0
0
0
0
0
0
0
0
0
0
0
0
0
0
0
0
0
0
0
0
0
0
0
0
0
0
0
1
0
0
0
0
0
0
0
0
0
0
0
0
0
0
0
0
0
0
0
0
0
1
0
0
0
0
0
0
0
0
0
0
0
0
1
1
0
0
0
0
0
0
0
0
0
0
0
0
0
0
0
1
1
0
1
0
0
0
0
0
0
0
0
0
1
0
0
0
0
0
0
1
0
0
0
0
0
0
0
0
0
0
1
0
0
0
0
1
0
1
0
0
0
0
0
0
0
1
0
0
0
1
0
0
0
1
0
1
1
0
0
1
1
0
0
0
1
0
0
0
1
0
0
0
0
0
0
0
0
0
1
0
0
0
0
0
0
1
0
0
0
0
0
0
0
0
0
0
0
0
0
0
0
0
0
0
0
0
0
0
0
0
0
0
0
1
0
0
1
0
0
0
0
0
0
0
0
0
0
0
0
0
0
0
0
0
0
1
0
0
1
0
0
0
0
0
0
0
0
0
0
0
1
0
0
1
0
0
0
0
0
0
0
0
0
0
0
1
1
0
0
0
0
0
0
0
0
0
0
0
0
1
0
0
0
0
0
0
0
0
0
0
0
0
0
0
0
0
0
1
0
0
0
0
0
0
0
0
0
0
0
0
0
0
0
0
0
1
0
0
0
0
0
0
0
0
0
0
0
0
0
0
0
0
0
0
0
0
0
0
0
0
0
0
0
0
0
0
0
0
0
0
0
0
0
0
0
0
1
0
0
0
0
0
0
0
0
0
0
0
0
0
0
0
0
0
0
0
0
0
0
0
0
0
0
0
0
0
0
0
0
0
0
0
0
0
0
0
0
0
0
0
0
0
1
0
0
0
0
0
0
0
0
0
0
0
0
0
0
0
0
0
0
0
0
0
0
0
0
0
0
0
0
0
0
0
0
0
0
0
0
0
0
0
0
0
0
0
0
0
0
0
1
0
0
0
0
0
0
0
0
0
0
1
0
0
0
0
0
0
0
0
0
0
0
0
0
0
0
1
0
0
1
0
0
0
0
0
0
0
0
0
0
0
0
0
0
0
0
0
0
0
0
0
0
0
1
0
0
0
0
0
0
0
0
0
0
0
0
0
0
0
0
0
0
0
0
0
0
0
0
0
0
0
0
0
0
0
0
0
0
0
1
0
0
0
0
0
0
0
0
0
0
0
0
0
0
0
0
0
0
0
0
0
0
0
0
0
0
0
0
0
0
0
0
0
0
0
0
0
0
0
0
0
0
0
0
0
0
0
0
0
0
0
0
0
0
0
0
0
0
0
0
0
0
0
0
0
0
0
0
0
0
0
0
0
0
0
0
1
0
0
0
0
0
0
0
0
0
0
0
0
0
0
0
0
0
0
0
0
0
0
0
0
0
0
0
0
0
0
0
0
0
0
0
0
0
0
0
1
0
0
0
0
0
0
0
0
0
0
0
0
1
1
0
0
0
0
0
0
0
0
0
0
0
0
0
0
0
0
0
0
0
0
0
0
0
0
0
0
0
0
0
0
0
0
0
0
0
0
0
0
0
0
0
0
0
0
0
0
0
0
0
0
0
0
0
0
0
0
0
0
0
0
0
0
0
0
0
0
0
0
0
0
0
0
0
0
0
0
0
0
0
0
0
0
0
0
0
0
0
0
0
0
0
0
0
0
0
0
0
0
0
0
0
1
0
1
0
0
0
0
0
0
0
1
1
1
1
0
0
0
0
0
0
0
0
0
0
0
0
0
0
0
0
0
0
0
0
0
0
0
0
0
0
0
0
1
1
0
0
0
0
0
0
0
0
0
0
0
0
0
0
0
0
0
0
1
0
0
0
0
0
0
0
1
1
0
1
1
0
0
1
0
0
0
0
0
0
0
1
0
1
0
0
0
0
0
0
0
0
0
0
0
0
0
0
0
0
0
0
0
0
0
0
0
0
0
0
0
1
1
0
0
0
1
1
0
0
0
0
1
0
0
1
0
1
0
0
0
0
0
1
0
0
0
1
0
0
0
0
0
0
0
0
0
0
0
0
0
0
0
0
0
0
0
0
0
0
0
0
0
0
0
1
0
0
0
0
0
0
1
0
0
0
0
0
0
0
0
0
0
0
0
0
0
0
0
0
0
0
0
0
0
0
0
0
0
0
0
0
1
0
1
0
0
0
0
0
0
0
1
0
0
0
0
0
0
0
0
0
0
0
1
0
0
0
0
0
0
0
0
0
1
0
0
0
0
0
0
0
1
0
0
0
0
0
0
0
1
0
0
0
0
0
0
0
0
0
0
0
0
0
0
0
0
0
0
0
1
0
1
0
0
0
0
0
1
0
0
0
0
0
0
0
0
0
0
0
0
0
0
0
0
0
0
0
0
0
0
0
0
0
1
0
1
0
0
0
0
0
0
0
0
0
1
0
0
0
0
0
1
0
0
0
0
0
0
0
0
0
0
0
0
0
0
0
1
0
0
0
0
0
0
0
0
1
0
0
0
0
0
0
0
0
0
0
0
0
0
0
0
0
0
0
0
0
0
0
0
0
0
0
0
0
0
0
1
0
0
0
0
0
0
0
0
0
0
0
0
0
0
0
0
1
0
0
0
0
0
0
0
0
1
0
0
0
0
0
0
0
0
0
1
0
0
0
0
0
1
0
0
0
0
0
0
0
0
0
0
0
0
0
0
0
0
0
0
0
1
0
0
0
0
0
0
1
0
0
0
0
0
0
0
0
1
0
0
0
0
0
0
0
0
0
0
0
0
0
0
1
0
0
1
0
0
0
1
0
0
0
0
0
0
0
0
0
0
0
0
0
0
0
0
1
0
0
0
0
0
0
0
0
0
0
1
0
1
0
0
0
0
0
0
1
0
0
0
0
0
0
0
0
0
0
0
0
0
0
0
0
0
0
0
0
0
0
0
0
0
0
0
1
1
0
0
0
0
0
0
1
0
0
0
0
0
0
0
0
0
0
0
0
0
1
0
0
0
0
0
0
0
1
0
0
0
0
0
0
0
0
0
0
0
0
0
0
0
0
0
0
0
0
0
0
0
0
0
0
0
1
0
0
0
0
0
0
0
0
0
0
1
0
0
1
0
0
0
0
0
0
0
0
0
0
0
0
0
0
0
0
0
0
0
0
0
0
0
0
0
0
0
0
0
1
0
0
0
0
0
0
0
1
0
0
0
0
0
0
0
1
0
0
0
0
1
0
0
0
0
0
0
0
0
0
0
0
1
0
1
0
0
0
1
0
				</DataArray>
				<DataArray type="Float64" Name="h" NumberOfComponents="1" Format="ascii">
1.1770429862
1.1770343748
1.1784426387
1.1761378450
1.1790957147
1.1784118382
1.1774561572
1.1755278535
1.1771946602
1.1738728884
1.1755368230
1.1776261519
1.1760558834
1.1745945934
1.1758980908
1.1751314489
1.1765373749
1.1744086404
1.1770073734
1.1748403120
1.1792272188
1.1768918077
1.1787477815
1.1801308414
1.1757767739
1.1747236742
1.1786812568
1.1839133935
1.1798201321
1.1739626840
1.1741446053
1.1787604339
1.1769118151
1.1783983318
1.1833990380
1.1809712779
1.1811667354
1.1796581771
1.1839538380
1.1801431957
1.1798570260
1.1838922849
1.1786722641
1.1807322821
1.1810286140
1.1828806186
1.1796629541
1.1845445514
1.1930419052
1.1923160021
1.1803232975
1.1818514966
1.1807326708
1.1877107296
1.1830399710
1.1795669335
1.1827901214
1.1864451915
1.1874128668
1.1870092872
1.1889908359
1.1881709645
1.1924869003
1.1818929347
1.1817015798
1.1858422036
1.1916137781
1.1916892774
1.1881639740
1.1872696576
1.1874111575
1.1832442964
1.1804819576
1.1886282816
1.1879666782
1.1858212631
1.1866183930
1.1890465379
1.1854599961
1.1851409748
1.1905383596
1.1867397740
1.1951789865
1.1909057928
1.1841531959
1.1867143203
1.1912426482
1.1902215040
1.1897333975
1.1946878464
1.1917023820
1.1858213943
1.1898041224
1.1941182160
1.1876278911
1.1867080614
1.1894648335
1.1841745990
1.1850612421
1.1912525909
1.1947372528
1.1906350161
1.1885324946
1.1853551933
1.1725672020
1.1911001790
1.1884260297
1.1936774117
1.1890282205
1.1876208258
1.1935384393
1.1941670713
1.1909236541
1.1920335724
1.1893708974
1.1940860856
1.1885199982
1.1730706179
1.1934053208
1.1902256932
1.1725618317
1.1894309608
1.1874853009
1.1709460597
1.1912540816
1.1937585538
1.1893922039
1.1709236006
1.1936738236
1.1942975686
1.1930475654
1.1884682176
1.1903040889
1.1943778476
1.1725778432
1.1929665912
1.1737488713
1.1945818793
1.1920779595
1.1761962118
1.1710512064
1.1714778899
1.1935652876
1.1778467672
1.1875140066
1.1924438047
1.1748323003
1.1955473767
1.1714739096
1.1958508578
1.1731739560
1.1948302420
1.1949437725
1.1959489475
1.1914019542
1.1948388273
1.1957324212
1.1719708654
1.1957563884
1.1700227563
1.1770769214
1.1954447444
1.1743101500
1.1707119681
1.1714789349
1.1949929704
1.1795720774
1.1756035992
1.1702181979
1.1950468897
1.1955726722
1.1697607497
1.1958171645
1.1719239288
1.1804549010
1.1961189599
1.1787189517
1.1958416504
1.1961473566
1.1707626379
1.1947853368
1.1822145041
1.1700364383
1.1882868515
1.1694344971
1.1695970359
1.1813377081
1.1959950094
1.1700666712
1.1696431172
1.1839640645
1.1962054320
1.1696391812
1.1831261893
1.1960741490
1.1956242811
1.1714321860
1.1856800435
1.1848704013
1.1959530257
1.1695859265
1.1891550747
1.1696168577
1.1960267459
1.1873628804
1.1705371589
1.1757481217
1.1732352110
1.1865579351
1.1788003096
1.1839461306
1.1696842137
1.1711060594
1.1704172030
1.1744372284
1.1856469668
1.1771963313
1.1712355724
1.1822149532
1.1699721629
1.1882247266
1.1946025557
1.1804863009
1.1933708605
1.1899346628
1.1961213805
1.1955369164
1.1918074320
1.1890128142
1.1951138546
1.1960178347
1.1940197409
1.1908748283
1.1960378699
1.1960548841
1.1926465335
1.1847593726
1.1767025158
1.1698820556
1.1797563621
1.1847558256
1.1740902299
1.1712838048
1.1796595763
1.1739350711
1.1765528001
1.1710317449
1.1830507472
1.1753422461
1.1720422348
1.1781775002
1.1830780476
1.1718380572
1.1864458395
1.1864132935
1.1711653160
1.1780474689
1.1751901557
1.1704169268
1.1939918597
1.1814011140
1.1905991228
1.1923474964
1.1938636054
1.1907658506
1.1960621049
1.1963253254
1.1889426830
1.1960625862
1.1950566283
1.1959003432
1.1813402858
1.1950981454
1.1925469922
1.1933271977
1.1897025400
1.1914860754
1.1931460110
1.1945004919
1.1898516019
1.1955265818
1.1961988334
1.1961375227
1.1963109627
1.1955264186
1.1945829975
1.1916746223
1.1776957769
1.1718478154
1.1721764246
1.1775238029
1.1855533371
1.1750668063
1.1748583659
1.1807033557
1.1855431607
1.1805946746
1.1763279554
1.1729702775
1.1711648562
1.1720803639
1.1761367941
1.1838910118
1.1871504771
1.1871962974
1.1791601426
1.1839198779
1.1790155904
1.1726963396
1.1912321072
1.1930599491
1.1929099984
1.1962790030
1.1896231652
1.1963022932
1.1944712906
1.1822988031
1.1955305012
1.1966148558
1.1822297403
1.1943697912
1.1913937479
1.1955206410
1.1963627466
1.1920889612
1.1922491818
1.1936753133
1.1963936457
1.1938066755
1.1950457276
1.1959186645
1.1966379674
1.1964537002
1.1903523634
1.1949871066
1.1905144897
1.1959622072
1.1785101266
1.1978253780
1.1816252012
1.1862881574
1.1815094013
1.1728006792
1.1863150094
1.1761172457
1.1787070402
1.1758606976
1.1731927468
1.1979185605
1.1935638838
1.1878402824
1.1964118277
1.1771352750
1.1736765523
1.1983579339
1.1801335011
1.1947970473
1.1847225908
1.1799738061
1.1973927713
1.1973648307
1.1983370698
1.1720796705
1.1847033251
1.1879075465
1.1773631897
1.1917988221
1.1932991495
1.1951245009
1.1731281232
1.1962435582
1.1981511114
1.1740099165
1.1969705418
1.1949575844
1.1948818637
1.1967221034
1.1781116586
1.1967316301
1.1918265573
1.1902569219
1.1959777890
1.1965802088
1.1831617778
1.1959937114
1.1830938507
1.1919983638
1.1935999841
1.1934651747
1.1839879640
1.1967858952
1.1909553675
1.1943155017
1.1905197950
1.1970182276
1.1954798268
1.1797139429
1.1809388032
1.1818002751
1.1878870635
1.1926670659
1.1963395793
1.1865542005
1.1955145871
1.1892159556
1.1967223429
1.1964142925
1.1911390856
1.1928232487
1.1852436035
1.1942074866
1.1927023595
1.1964668046
1.1939742453
1.1794912744
1.1980237462
1.1972355345
1.1823876183
1.1969340959
1.1930926420
1.1921694190
1.1908645302
1.1769144233
1.1976964693
1.1984862480
1.1953316015
1.1975349966
1.1738686018
1.1978143004
1.1870295041
1.1943743823
1.1987911333
1.1968534347
1.1983818069
1.1955558189
1.1958060345
1.1989925718
1.1969015588
1.1975621153
1.1924554281
1.1943151486
1.1969673130
1.1781571756
1.1982062131
1.1939354645
1.1809061328
1.1938988309
1.1954481573
1.1959405534
1.1982375460
1.1972550027
1.1973685858
1.1731272374
1.1922397605
1.1854716964
1.1908645716
1.1993737423
1.1988326451
1.1959327267
1.1992909047
1.1747548117
1.1885678660
1.1804419765
1.1969484968
1.1839167611
1.1954515466
1.1946482381
1.1925682511
1.1889440920
1.1779894202
1.1971259832
1.1832138847
1.1964368582
1.1861842686
1.1908354335
1.1941353030
1.1999221137
1.1851726297
1.1750282744
1.1788942747
1.1795597448
1.1891678861
1.1791722750
1.1971075981
1.1996695274
1.1996520156
1.1967810832
1.1802170239
1.1948297605
1.1816345492
1.1947578542
1.1917170211
1.2003515330
1.1759063027
1.1797138174
1.1828262298
1.1817930948
1.2002249123
1.1959905566
1.1807192773
1.1981266782
1.1989633777
1.1840252429
1.1818002725
1.1878869168
1.1846854104
1.1933779832
1.1742801777
1.1906088135
1.1957912523
1.1802171567
1.1876861283
1.1972361564
1.1832133091
1.1926498961
1.1750275459
1.1976066096
1.1934114296
1.1755139002
1.1833147528
1.1876860729
1.1951578235
1.1945782193
1.1981116593
1.1806798393
1.1986239190
1.1826004500
1.1962461507
1.1914551117
1.1875933702
1.1977913884
1.1804416845
1.1966335419
1.1783257832
1.1779891109
1.1885683659
1.1759056742
1.1817926480
1.1742793076
1.1914550879
1.1891681106
1.1873507738
1.1828806216
1.1748380796
1.1849632860
1.1819657626
1.1814348345
1.1861839009
1.1861403608
1.1821149599
1.1992791365
1.1838577739
1.1794642643
1.1909548165
1.1763321749
1.1920974296
1.1890304228
1.1816713131
1.1985870377
1.1989663780
1.1861476855
1.1816485828
1.1988328396
1.1791720459
1.1897745485
1.1969024985
1.1846848480
1.1946478509
1.1966539411
1.1973714016
1.1847146339
1.1956610122
1.1984765682
1.1964887098
1.1930929877
1.1767819891
1.1913516063
1.1937846698
1.1972360781
1.1867446522
1.1827703460
1.1959408015
1.1981266470
1.1841909798
1.1948488709
1.1794248669
1.1975634820
1.1964675180
1.1938987431
1.1817011395
1.1975372833
1.1882899232
1.1829933017
1.1898902894
1.1822509334
1.1922405095
1.1881324544
1.1761072427
1.2001902755
1.1863969860
1.1902142940
1.1853726436
1.1998432980
1.1815772648
1.1953313945
1.1834443894
1.1866099722
1.1996781478
1.1972364730
1.1832238640
1.1855192274
1.1784580590
1.1993009282
1.1817160322
1.1937846348
1.1804639273
1.1967378829
1.1783254431
1.1847141853
1.1875932417
1.1806796261
1.1991343947
1.1931893617
1.1775719341
1.1755133108
1.1840405225
1.1799914273
1.2001777135
1.1763316161
1.1826037699
1.1866100144
1.1806802639
1.1836271851
1.1890305050
1.1833143281
1.1861473490
1.1794640474
1.1991996473
1.2005272535
1.1982813003
1.1958350633
1.1748373575
1.1856274265
1.1877088053
1.1874006798
1.2001279394
1.1988299886
1.1909547853
1.1844529119
1.1999566807
1.1781359785
1.1833481329
1.1775472747
1.1800533111
1.1766954764
1.1860126001
1.1887886123
1.1819654504
1.1985747165
1.1821345724
1.1768185652
1.1791638679
1.1975538937
1.1997343711
1.2007795804
1.1978601796
1.1797612488
1.1846514925
1.1783341389
1.1810355424
1.2007210289
1.2009711866
1.1885683630
1.1846357627
1.1875889613
1.1815965438
1.1992754616
1.1809133114
1.1819931295
1.2015620037
1.2010155514
1.1855689142
1.1847591813
1.1996916995
1.1839445441
1.1835738595
1.1795310418
1.2004016686
1.2012795432
1.2008291796
1.1830557247
1.1823965376
1.1790491270
1.1805672967
1.1812152172
1.2002215276
1.2007399220
1.1989190316
1.1996160164
1.1765686361
1.2011753811
1.2015778856
1.1803950438
1.2005272573
1.1999224013
1.1832251304
1.2018285903
1.1838577843
1.2010092498
1.1822083748
1.1823742674
1.2018078826
1.1817169776
1.2014465699
1.2013035638
1.1816485894
1.2009297774
1.1828813724
1.1857922947
1.2005535980
1.2007800267
1.1804929114
1.1778008963
1.1778459896
1.1778382298
1.1777910330
1.1770583112
1.1776297379
1.1755406967
1.1761324427
1.1790270913
1.1784176901
1.1790893559
1.1790188856
1.1771879180
1.1759039791
1.1774615386
1.1744638894
1.1761275153
1.1770538622
1.1755716753
1.1744116084
1.1761345515
1.1784379841
1.1770174671
1.1739652327
1.1750350491
1.1774664587
1.1755226015
1.1747239983
1.1757787208
1.1738702465
1.1760914238
1.1760497040
1.1792931496
1.1761113075
1.1778054288
1.1744607218
1.1741463375
1.1755660098
1.1784002049
1.1769188160
1.1787737302
1.1777998425
1.1801475692
1.1836209537
1.1765360965
1.1751292136
1.1786871762
1.1839717995
1.1774636616
1.1750319918
1.1798671504
1.1745918490
1.1748394158
1.1792891604
1.1787321765
1.1849095332
1.1768831102
1.1812152271
1.1760847459
1.1792240124
1.1777928395
1.1778279264
1.1848736550
1.1845468317
1.1761078460
1.1810342506
1.1803255563
1.1796811546
1.1838976931
1.1801254838
1.1798072700
1.1828022731
1.1825857289
1.1786686184
1.1822441823
1.1743214334
1.1836024332
1.1839545522
1.1832761328
1.1777913098
1.1807477236
1.1849075109
1.1929841521
1.1917518275
1.1778146256
1.1812116357
1.1822420797
1.1848638173
1.1809641235
1.1817213993
1.1796390958
1.1844105576
1.1833963188
1.1924837732
1.1916845994
1.1848374057
1.1811636906
1.1819007690
1.1839503473
1.1860187188
1.1865047170
1.1807135218
1.1886258624
1.1869026148
1.1832483624
1.1804987219
1.1873043039
1.1823671112
1.1816330047
1.1822406334
1.1890294136
1.1832733820
1.1838867970
1.1866198205
1.1874120074
1.1886981516
1.1879658479
1.1825653092
1.1805686426
1.1881654147
1.1823267885
1.1743190210
1.1872719588
1.1822377580
1.1844082219
1.1858540000
1.1848306636
1.1909298942
1.1852351408
1.1922845388
1.1930456396
1.1818414776
1.1917558677
1.1828643815
1.1867442536
1.1909016839
1.1858475915
1.1929890769
1.1923213482
1.1889889067
1.1881683883
1.1805490767
1.1897871440
1.1887000848
1.1874122804
1.1862849562
1.1869027791
1.1849185138
1.1813986982
1.1860173572
1.1823242613
1.1850476039
1.1830349208
1.1881944832
1.1873022930
1.1890271655
1.1795532147
1.1867388879
1.1880577849
1.1823495837
1.1877105421
1.1865039663
1.1870092388
1.1858342089
1.1864432285
1.1816120814
1.1898051314
1.1909336486
1.1853577430
1.1850763950
1.1858457930
1.1831891489
1.1852333592
1.1906372492
1.1916344365
1.1905999665
1.1901620355
1.1858329424
1.1947374897
1.1916186894
1.1843160148
1.1841921292
1.1898654181
1.1867180602
1.1858988261
1.1922906770
1.1912541576
1.1910966718
1.1858421252
1.1952293039
1.1867360798
1.1890281674
1.1941634726
1.1897855276
1.1880580156
1.1909236042
1.1850458241
1.1858104458
1.1934941596
1.1862844216
1.1890458946
1.1813824012
1.1917850204
1.1849072955
1.1935317217
1.1876262319
1.1881932961
1.1905989407
1.1952265075
1.1876739031
1.1898629573
1.1867037061
1.1894322983
1.1896028229
1.1843134118
1.1734901799
1.1858975871
1.1901639854
1.1841384782
1.1851254525
1.1912407228
1.1951767550
1.1905363054
1.1885211581
1.1854578558
1.1916395802
1.1725623693
1.1902229487
1.1831742444
1.1917836167
1.1884736542
1.1928710629
1.1732582867
1.1937577537
1.1906078299
1.1921759893
1.1897342677
1.1876213354
1.1941233326
1.1940138766
1.1946891211
1.1917014681
1.1932803704
1.1863061325
1.1912515685
1.1893898551
1.1935018973
1.1943000478
1.1885303895
1.1944208737
1.1928365609
1.1876730497
1.1734897061
1.1896048159
1.1925758853
1.1725790883
1.1929679709
1.1903008610
1.1725666558
1.1894632783
1.1875221203
1.1921927355
1.1714787553
1.1911224921
1.1732587929
1.1940116632
1.1920345221
1.1936793487
1.1737671746
1.1863034264
1.1921758694
1.1893722099
1.1714744428
1.1928785132
1.1935677190
1.1706097667
1.1940830967
1.1906084896
1.1924458471
1.1932804693
1.1884201346
1.1718593412
1.1866023309
1.1921677558
1.1951770999
1.1944191162
1.1925779624
1.1725494791
1.1941744489
1.1943231237
1.1919423518
1.1902293122
1.1928444823
1.1948324802
1.1730692164
1.1925361697
1.1934044588
1.1731230815
1.1731722342
1.1949464914
1.1914043704
1.1737684728
1.1706091972
1.1756035372
1.1714789119
1.1911259542
1.1955526097
1.1718584506
1.1707278866
1.1957460874
1.1913280512
1.1921986092
1.1709452470
1.1936711850
1.1770802025
1.1717432036
1.1874782931
1.1930455939
1.1726806143
1.1743083849
1.1931535851
1.1954478160
1.1709231244
1.1957589250
1.1919400371
1.1737506117
1.1943753416
1.1951930072
1.1911098444
1.1943219935
1.1945409883
1.1945789123
1.1958193651
1.1733101023
1.1725878774
1.1920755221
1.1731214712
1.1921736460
1.1725506600
1.1951746677
1.1865948858
1.1925338836
1.1950499087
1.1933319727
1.1941717726
1.1955748099
1.1719234122
1.1958483179
1.1700366597
1.1902780508
1.1717428938
1.1707276069
1.1948914784
1.1954817891
1.1959094974
1.1778397827
1.1955443487
1.1748328550
1.1707626076
1.1957433324
1.1726793589
1.1913302193
1.1704852418
1.1710512061
1.1947886216
1.1931510709
1.1787265075
1.1927650315
1.1761938513
1.1955498925
1.1702946732
1.1700670985
1.1948354934
1.1957301601
1.1725887270
1.1901225713
1.1951901759
1.1719880583
1.1733091261
1.1911117244
1.1694350215
1.1945378584
1.1959468592
1.1719709294
1.1933295413
1.1813507977
1.1892376308
1.1960761858
1.1795607864
1.1702944646
1.1948884962
1.1956277342
1.1704852042
1.1959072116
1.1927626231
1.1953638278
1.1697543288
1.1954791651
1.1902763641
1.1702530748
1.1962073983
1.1939058342
1.1707118456
1.1949897534
1.1831382012
1.1958989036
1.1700224847
1.1891596922
1.1960434242
1.1697603202
1.1696170780
1.1804441477
1.1960287305
1.1901200965
1.1702175708
1.1695860468
1.1719870953
1.1848795554
1.1959601075
1.1961453528
1.1713984060
1.1697539605
1.1702527239
1.1696844682
1.1958959830
1.1953605084
1.1705558475
1.1955732368
1.1822032941
1.1939035159
1.1961169229
1.1892328229
1.1696117149
1.1695370565
1.1958385092
1.1711057412
1.1865643727
1.1839549413
1.1960198751
1.1960414819
1.1696430107
1.1959581465
1.1959340238
1.1959857899
1.1882815491
1.1695967462
1.1959929556
1.1882293656
1.1710318405
1.1765527315
1.1720628195
1.1739333395
1.1856736479
1.1695368722
1.1873134380
1.1699051920
1.1796649758
1.1721552900
1.1713988103
1.1847638303
1.1696389107
1.1696776336
1.1955698304
1.1714326926
1.1700845600
1.1751885798
1.1728146452
1.1864485298
1.1780500845
1.1718376271
1.1830569657
1.1696115584
1.1698822278
1.1705557495
1.1959809533
1.1880995947
1.1873583041
1.1959319577
1.1945756168
1.1813470520
1.1959839728
1.1933199140
1.1898552514
1.1961397231
1.1955261734
1.1958568901
1.1916750396
1.1889445730
1.1950940765
1.1959511906
1.1939831274
1.1907691494
1.1960642580
1.1958560252
1.1960647905
1.1925432027
1.1839389901
1.1775238675
1.1729841305
1.1699719131
1.1805980237
1.1855551840
1.1721561124
1.1873102925
1.1720637554
1.1703735859
1.1880401190
1.1748570844
1.1718480564
1.1699050146
1.1787949146
1.1732367243
1.1757487269
1.1705368479
1.1822063839
1.1761357183
1.1726961025
1.1696773973
1.1790174214
1.1838941387
1.1712356600
1.1856419973
1.1871967979
1.1737030830
1.1707301717
1.1771943726
1.1728157535
1.1744389236
1.1700842531
1.1940280867
1.1822335497
1.1888020694
1.1905163731
1.1922513078
1.1938020196
1.1908718711
1.1958539697
1.1960517537
1.1963946523
1.1890098152
1.1960364351
1.1961661626
1.1950384167
1.1959161794
1.1804782986
1.1959787326
1.1951163756
1.1926508760
1.1933784918
1.1896229002
1.1913968409
1.1930589964
1.1944641618
1.1899306136
1.1955358515
1.1958539435
1.1962798360
1.1880984442
1.1961191291
1.1963637628
1.1955251487
1.1962001966
1.1946088143
1.1918078183
1.1785103373
1.1739379207
1.1712834312
1.1703734766
1.1728011759
1.1767029485
1.1847520953
1.1887267805
1.1758601437
1.1880394972
1.1740915233
1.1815112485
1.1863154828
1.1797525852
1.1729848488
1.1771348384
1.1736767107
1.1707297425
1.1715637380
1.1753436023
1.1830730449
1.1879070221
1.1747013770
1.1864111120
1.1737038684
1.1799749496
1.1847047081
1.1781759723
1.1720422910
1.1911391173
1.1931481816
1.1928253573
1.1961979799
1.1897018077
1.1963365572
1.1945083692
1.1830957796
1.1955308886
1.1962002763
1.1965309256
1.1967215636
1.1894602846
1.1813959819
1.1943137650
1.1914828805
1.1955094605
1.1963089519
1.1919999906
1.1923461173
1.1936007894
1.1963236692
1.1888028120
1.1965895034
1.1938694460
1.1950638300
1.1959015489
1.1967213537
1.1965794801
1.1902554722
1.1949534746
1.1905964325
1.1959732312
1.1961650024
1.1980227951
1.1943744231
1.1893615166
1.1969340462
1.1776958685
1.1739382187
1.1979985286
1.1982854249
1.1823885596
1.1941452413
1.1870294216
1.1807009419
1.1968991669
1.1976961960
1.1983026566
1.1721759137
1.1855415019
1.1887276658
1.1769144977
1.1794915718
1.1750675034
1.1927022861
1.1924061459
1.1958062786
1.1738693207
1.1956638175
1.1977937885
1.1749906862
1.1978231945
1.1937044387
1.1885671502
1.1964467897
1.1763286770
1.1729700937
1.1978354294
1.1984963412
1.1809068073
1.1949363058
1.1854722185
1.1791589935
1.1973792856
1.1973394982
1.1981101571
1.1715631464
1.1839172259
1.1871500186
1.1757754112
1.1781572349
1.1747015734
1.1919909156
1.1930954295
1.1952135484
1.1725453208
1.1963205918
1.1980943410
1.1747553261
1.1846629766
1.1971055522
1.1900651663
1.1949926649
1.1895474568
1.1969359320
1.1948296586
1.1966378112
1.1788944844
1.1795114717
1.1813686507
1.1967789331
1.1816344486
1.1870029650
1.1917161272
1.1965909981
1.1903530753
1.1872521680
1.1959668067
1.1899098035
1.1964537658
1.1839176629
1.1959881083
1.1822958024
1.1920867123
1.1936755623
1.1845268584
1.1933789637
1.1840253249
1.1969462778
1.1908339597
1.1943730636
1.1902143443
1.1971244183
1.1954500448
1.1965315904
1.1782054368
1.1788906062
1.1813847092
1.1970123132
1.1821111189
1.1876638465
1.1925683835
1.1963047404
1.1894616889
1.1863970969
1.1955266257
1.1889441595
1.1966147049
1.1964342720
1.1912311271
1.1929080685
1.1851727146
1.1941362363
1.1928686689
1.1986305550
1.1964699334
1.1973703136
1.1934115370
1.1941453791
1.1951579637
1.1964091878
1.1787068380
1.1978900137
1.1976909860
1.1971797585
1.1978889536
1.1929876602
1.1816237763
1.1969403323
1.1932087584
1.1924062163
1.1944892345
1.1910820218
1.1948260773
1.1761172831
1.1976377579
1.1983038329
1.1953856858
1.1985870208
1.1969398086
1.1977914931
1.1973782611
1.1731920615
1.1915041214
1.1977940797
1.1862875967
1.1917989008
1.1921694821
1.1992787195
1.1989659945
1.1944890950
1.1966336608
1.1989771150
1.1968993045
1.1982858623
1.1991808080
1.1749904923
1.1893628111
1.1956638077
1.1958687709
1.1984851171
1.1935641116
1.1989578774
1.1968763726
1.1978143043
1.1974391295
1.1927411984
1.1932990270
1.1945221227
1.1970903696
1.1773632820
1.1980001328
1.1981603521
1.1974589247
1.1936431165
1.1801326775
1.1973651899
1.1939956048
1.1914759678
1.1914760093
1.1956527651
1.1757750816
1.1979192758
1.1983587471
1.1959701040
1.1982279159
1.1973173517
1.1971807513
1.1725445615
1.1923746741
1.1955558966
1.1973928845
1.1847213037
1.1910821364
1.1991338299
1.1987418890
1.1951244350
1.1960656212
1.1988543456
1.1963204456
1.1980945669
1.1994195748
1.1740094251
1.1878406121
1.1949361073
1.1964118128
1.1797112326
1.1967870516
1.1993009564
1.1998432044
1.1970139474
1.1831601548
1.1795596733
1.1954827605
1.1821111837
1.1956610904
1.1947246247
1.1926661935
1.1892158714
1.2001902207
1.1761118727
1.1795114355
1.1772127762
1.1970194770
1.1833995089
1.1825026482
1.1999566534
1.1964175149
1.1807484793
1.1976218488
1.1993567058
1.1846628672
1.1809387858
1.1885849923
1.1885848677
1.1854699330
1.1909565069
1.1942070057
1.1997495839
1.1852434386
1.1882791701
1.1743121819
1.1781111538
1.1913510452
1.1951859036
1.1801315401
1.1811023435
1.1884702765
1.1802972646
1.1978998142
1.1784185557
1.1969719919
1.1996781640
1.1995894509
1.1967338410
1.1796306491
1.1948831222
1.1813847550
1.1950494430
1.1918267623
1.1882791347
1.2001278734
1.1751383248
1.1788903817
1.1768978173
1.1969373682
1.1829933450
1.1810770711
1.2001299981
1.1959973547
1.1801314028
1.1982693243
1.1989914178
1.1839878009
1.1813686169
1.1876637254
1.1834630385
1.1839726948
1.1900663228
1.1934638882
1.1998778471
1.1845266573
1.1736450539
1.1782049814
1.1804681230
1.1899349181
1.1960770675
1.1788433270
1.1807485206
1.1869755507
1.1973898308
1.1892048920
1.1761113888
1.1825018813
1.1929876446
1.1743115466
1.1976909162
1.1924553359
1.1899356569
1.1864327266
1.1936576359
1.1824088736
1.1762582751
1.1842071903
1.1988293605
1.1839719971
1.1953271735
1.1810030634
1.1869753457
1.1867548807
1.1953271253
1.1952133550
1.1948260874
1.1826349592
1.1976372396
1.1978378327
1.1926499199
1.1919910105
1.1988298074
1.1844537167
1.1813327334
1.1986305762
1.1973402070
1.1916072926
1.1817145363
1.1928683864
1.1772757714
1.1964091381
1.1962435196
1.1917818106
1.1910108821
1.1983814647
1.1904384181
1.1819574064
1.1978275972
1.1992603449
1.1930954498
1.1978184651
1.1994615359
1.1882753448
1.1817035890
1.1978184455
1.1985385728
1.1797110240
1.1887459591
1.1967309102
1.1790504904
1.1772125429
1.1981511850
1.1881853903
1.1751377978
1.1810765845
1.1919908735
1.1736442331
1.1970902254
1.1917817683
1.1962462213
1.1884705436
1.1870094046
1.1943150657
1.1829335162
1.1755140051
1.1847592373
1.1826127547
1.1823895276
1.1854692945
1.1858570016
1.1939742669
1.1959326303
1.1939353206
1.1823741750
1.1983382241
1.1986239346
1.1989776937
1.1837618668
1.1801453855
1.1982061329
1.1905254452
1.1834999809
1.1771068498
1.1956526162
1.1994611953
1.1919908832
1.1916585729
1.1896994290
1.1822079916
1.1989579229
1.1992911986
1.1868299450
1.1824931635
1.1982374914
1.1991809504
1.1784184362
1.1893631317
1.1972548747
1.1780394944
1.1768973209
1.1968779849
1.1839718468