<VTKFile type="UnstructuredGrid" version="0.1">
	<UnstructuredGrid>
		<Piece NumberOfPoints="1862" NumberOfCells="3498">
			<CellData>
				<DataArray type="Int32" Name="type" NumberOfComponents="1" Format="ascii">
0
0
0
0
0
0
0
0
0
0
0
0
0
0
0
0
1
0
0
1
0
0
0
0
0
0
0
0
0
0
0
0
0
1
0
0
0
0
0
0
0
0
0
0
0
0
0
0
0
0
1
0
0
0
0
0
0
0
0
0
0
1
0
0
0
0
0
0
0
0
0
0
0
0
0
0
0
0
0
0
0
0
0
0
0
0
0
0
0
0
0
0
0
0
0
0
0
0
0
0
0
0
0
0
0
0
0
0
0
0
0
0
0
0
0
0
0
0
0
0
0
0
0
1
0
0
0
0
0
0
0
0
0
0
0
0
0
0
0
0
0
0
0
0
0
0
0
0
0
0
0
1
0
1
1
0
0
0
0
0
0
0
0
0
0
0
0
0
1
0
1
0
0
0
0
1
0
0
0
0
0
0
0
0
1
1
0
0
0
0
0
1
0
0
0
0
0
0
0
0
1
0
0
0
0
0
0
0
0
0
0
0
0
0
0
0
0
0
0
0
0
0
0
0
0
0
0
0
0
0
0
0
0
1
0
0
0
0
0
0
0
0
0
0
0
0
0
0
0
0
0
0
0
0
0
0
0
0
0
0
0
0
0
0
0
0
0
0
0
0
0
0
0
0
0
0
0
0
0
0
0
1
0
0
0
0
0
0
0
0
0
0
0
0
0
0
0
0
0
0
0
0
0
0
0
0
0
0
0
0
0
0
0
0
0
0
0
0
0
0
0
0
0
0
0
0
0
0
0
0
0
0
1
0
0
0
0
0
0
0
0
0
0
0
0
0
0
0
0
0
0
0
0
0
0
0
0
0
0
0
0
0
0
0
0
0
0
0
0
0
0
0
0
0
0
0
0
0
0
0
0
0
0
0
0
0
0
0
0
0
1
0
0
0
0
0
0
0
0
0
0
0
0
0
0
0
0
0
0
0
0
0
0
0
0
0
0
0
0
0
0
0
0
0
0
0
0
0
0
0
0
0
0
0
0
0
0
0
0
0
0
0
0
0
0
0
0
0
0
0
0
0
0
0
0
0
0
0
0
0
0
0
0
0
0
0
0
0
0
0
0
0
0
0
0
0
0
0
0
0
0
0
0
0
0
0
0
0
0
0
0
0
0
0
0
0
0
0
0
0
0
0
0
0
0
0
0
0
0
0
0
0
0
0
0
0
0
0
0
0
0
0
0
1
0
0
0
0
0
0
0
0
0
0
0
0
0
0
0
0
0
0
0
1
0
0
0
0
0
0
0
0
0
0
0
0
0
0
0
0
0
0
0
0
0
0
0
0
0
0
0
0
0
0
0
0
0
0
0
0
0
0
0
0
0
0
0
0
0
0
0
0
0
0
0
0
0
1
0
0
0
0
0
0
0
0
0
0
0
0
0
0
0
0
0
0
0
0
0
0
0
1
0
0
0
0
0
0
0
0
0
0
0
0
0
0
0
0
0
0
0
1
0
0
0
1
0
0
0
0
0
0
0
0
0
0
0
0
0
0
0
0
0
0
0
0
0
0
0
0
0
1
0
0
0
0
0
0
0
1
0
0
0
0
0
0
0
0
0
0
0
0
0
0
0
0
0
0
0
0
0
0
0
0
0
0
1
0
0
0
0
0
0
0
1
0
0
0
0
0
0
1
0
0
0
0
0
0
0
0
0
0
0
0
0
0
0
0
0
0
0
0
0
0
0
0
0
0
0
0
0
0
0
0
0
0
0
0
0
0
1
0
0
0
0
0
1
0
0
0
0
0
0
0
1
0
0
0
0
0
0
0
0
0
0
0
0
0
1
0
0
0
0
0
0
0
0
0
0
0
0
0
0
0
0
0
0
0
0
0
0
0
0
0
0
0
0
0
0
0
0
0
0
0
0
0
0
0
0
0
0
0
0
0
0
0
0
0
0
0
0
0
1
0
0
0
0
0
0
0
0
0
0
0
0
0
0
0
0
0
0
0
1
0
0
0
0
0
0
0
0
0
1
0
0
0
0
0
0
0
0
0
0
0
0
0
0
0
0
0
0
0
0
0
0
0
0
0
0
0
0
0
1
0
1
0
0
0
0
0
0
0
0
0
0
0
0
0
0
0
0
0
0
0
0
0
0
0
0
0
0
0
1
0
0
0
1
0
0
0
0
0
0
0
0
0
0
0
0
0
0
0
0
0
0
0
0
0
0
0
0
0
0
0
0
1
0
0
0
0
0
0
0
0
0
0
0
0
0
0
0
0
0
0
0
0
0
0
0
0
0
1
0
0
0
0
0
0
0
0
0
0
0
0
0
0
0
0
0
0
0
0
0
0
0
1
0
0
0
0
0
0
1
0
0
0
0
0
0
0
0
0
0
0
1
0
0
0
0
0
0
0
0
0
0
0
0
0
0
0
0
0
0
0
0
1
0
0
0
0
0
0
0
0
0
0
0
1
0
0
0
0
0
0
0
0
0
0
0
0
0
0
0
0
0
0
0
0
0
1
0
0
0
0
0
0
0
0
0
1
1
0
1
0
1
0
0
0
0
0
0
0
0
0
0
0
1
0
0
0
0
0
1
1
0
0
0
0
0
0
1
0
0
0
0
0
1
1
1
0
0
0
0
0
0
0
0
0
0
0
0
1
1
0
0
1
0
0
0
0
0
1
0
0
0
1
0
1
0
0
0
0
0
0
0
1
0
0
0
0
0
0
0
1
0
0
1
0
0
0
0
0
0
0
0
0
0
0
0
0
0
0
1
0
0
0
0
0
0
0
0
0
0
0
0
0
0
0
0
0
0
0
0
0
0
0
0
0
0
0
0
0
0
0
0
0
0
0
0
1
0
0
0
0
0
0
1
0
0
0
1
0
0
0
0
0
0
0
0
0
0
0
1
0
0
0
0
0
0
0
0
0
0
0
0
0
0
0
0
0
0
0
0
0
0
0
0
0
0
0
0
0
0
0
0
0
0
0
0
0
0
0
0
1
1
0
0
0
0
0
0
0
0
0
0
0
0
0
1
0
0
0
0
0
0
0
0
0
0
0
0
0
0
0
0
0
0
0
0
0
0
0
0
0
0
0
0
0
0
0
0
0
0
0
0
0
0
0
0
0
0
0
0
0
0
0
0
0
0
0
0
0
0
0
0
0
0
0
0
0
0
0
0
0
0
0
0
0
0
0
0
1
1
0
0
0
0
0
0
0
0
1
0
0
0
0
0
0
0
0
0
0
0
0
0
0
0
0
0
0
0
0
0
0
0
1
0
0
0
0
0
0
0
0
0
0
0
0
0
0
0
0
1
0
0
0
0
0
0
0
0
0
0
0
0
0
0
0
0
0
0
0
0
0
0
0
0
0
0
0
0
0
0
0
0
0
0
0
0
0
0
0
0
0
0
0
0
0
0
0
0
0
0
0
0
0
0
0
0
0
0
0
0
0
0
0
0
0
0
0
0
0
0
0
0
0
0
0
0
0
0
0
0
0
0
0
0
0
0
0
0
0
0
1
1
0
0
0
0
0
1
0
0
0
0
0
0
0
0
0
0
0
0
1
0
0
0
0
0
0
0
0
0
0
0
0
0
0
0
0
0
0
0
0
0
0
0
0
0
0
0
0
0
0
0
0
0
0
0
0
0
0
0
0
0
0
0
0
0
0
0
0
0
0
0
0
0
1
0
1
0
0
0
0
0
0
0
0
0
0
0
0
0
0
0
0
0
0
1
0
0
0
0
0
0
0
0
0
0
0
0
0
0
0
0
0
0
0
0
0
0
0
0
0
0
0
0
0
0
0
0
0
0
0
0
0
0
0
0
0
0
0
0
0
0
0
0
0
0
0
0
0
0
0
0
0
0
0
0
0
0
0
0
0
0
0
0
0
0
1
0
0
0
0
0
0
0
0
0
0
1
0
0
0
0
0
0
0
0
0
0
0
0
0
0
0
0
0
0
0
0
0
0
0
0
0
0
0
0
0
0
0
0
0
0
0
0
0
1
0
0
0
0
0
0
0
0
0
0
0
0
0
0
0
0
0
0
0
0
0
0
0
0
0
0
0
0
0
0
0
0
0
0
0
0
0
0
0
0
0
0
0
0
0
0
0
0
0
0
0
0
0
0
0
0
0
0
0
0
0
0
0
0
0
0
0
0
0
0
0
0
0
0
0
0
0
0
0
0
0
1
0
0
0
0
0
0
0
0
0
0
0
0
0
0
0
0
0
0
0
0
0
0
0
0
0
0
0
0
0
0
0
0
0
0
0
0
0
0
0
0
0
0
0
0
0
0
0
0
0
0
0
0
0
0
0
0
0
0
0
0
0
0
0
0
0
0
0
0
0
0
0
0
0
0
0
0
0
0
0
0
0
0
0
0
0
0
0
0
0
0
0
0
0
0
0
0
0
0
0
0
0
0
0
0
0
0
0
0
0
0
0
0
0
0
0
0
0
0
0
0
0
0
0
1
0
0
0
0
0
0
0
0
0
0
0
0
0
0
0
0
0
0
0
0
0
0
0
0
0
0
0
0
0
0
0
0
0
0
0
0
0
0
0
0
0
0
0
0
0
0
0
0
0
0
0
0
0
0
0
0
0
0
0
0
0
0
0
0
0
0
0
0
0
0
0
0
0
0
0
0
0
0
0
0
0
1
0
0
0
0
0
0
0
1
0
0
0
0
0
0
0
0
0
0
0
0
0
0
0
0
0
0
0
0
0
0
0
0
0
0
0
0
0
0
0
0
0
0
0
0
0
1
0
0
0
0
0
0
0
0
0
0
0
0
0
0
0
0
0
0
0
0
0
1
0
0
0
0
0
0
0
0
0
0
0
0
1
1
0
0
0
0
0
0
0
0
0
0
0
0
0
0
0
1
1
0
1
0
0
0
0
0
0
0
0
0
1
0
0
0
0
0
0
1
0
0
0
0
0
0
0
0
0
0
1
0
0
0
0
1
0
1
0
0
0
0
0
0
0
1
0
0
0
1
0
0
0
1
0
1
1
0
0
1
1
0
0
0
1
0
0
0
1
0
0
0
0
0
0
0
0
0
1
0
0
0
0
0
0
1
0
0
0
0
0
0
0
0
0
0
0
0
0
0
0
0
0
0
0
0
0
0
0
0
0
0
0
1
0
0
1
0
0
0
0
0
0
0
0
0
0
0
0
0
0
0
0
0
0
1
0
0
1
0
0
0
0
0
0
0
0
0
0
0
1
0
0
1
0
0
0
0
0
0
0
0
0
0
0
1
1
0
0
0
0
0
0
0
0
0
0
0
0
1
0
0
0
0
0
0
0
0
0
0
0
0
0
0
0
0
0
1
0
0
0
0
0
0
0
0
0
0
0
0
0
0
0
0
0
1
0
0
0
0
0
0
0
0
0
0
0
0
0
0
0
0
0
0
0
0
0
0
0
0
0
0
0
0
0
0
0
0
0
0
0
0
0
0
0
0
1
0
0
0
0
0
0
0
0
0
0
0
0
0
0
0
0
0
0
0
0
0
0
0
0
0
0
0
0
0
0
0
0
0
0
0
0
0
0
0
0
0
0
0
0
0
1
0
0
0
0
0
0
0
0
0
0
0
0
0
0
0
0
0
0
0
0
0
0
0
0
0
0
0
0
0
0
0
0
0
0
0
0
0
0
0
0
0
0
0
0
0
0
0
1
0
0
0
0
0
0
0
0
0
0
1
0
0
0
0
0
0
0
0
0
0
0
0
0
0
0
1
0
0
1
0
0
0
0
0
0
0
0
0
0
0
0
0
0
0
0
0
0
0
0
0
0
0
1
0
0
0
0
0
0
0
0
0
0
0
0
0
0
0
0
0
0
0
0
0
0
0
0
0
0
0
0
0
0
0
0
0
0
0
1
0
0
0
0
0
0
0
0
0
0
0
0
0
0
0
0
0
0
0
0
0
0
0
0
0
0
0
0
0
0
0
0
0
0
0
0
0
0
0
0
0
0
0
0
0
0
0
0
0
0
0
0
0
0
0
0
0
0
0
0
0
0
0
0
0
0
0
0
0
0
0
0
0
0
0
0
1
0
0
0
0
0
0
0
0
0
0
0
0
0
0
0
0
0
0
0
0
0
0
0
0
0
0
0
0
0
0
0
0
0
0
0
0
0
0
0
1
0
0
0
0
0
0
0
0
0
0
0
0
1
1
0
0
0
0
0
0
0
0
0
0
0
0
0
0
0
0
0
0
0
0
0
0
0
0
0
0
0
0
0
0
0
0
0
0
0
0
0
0
0
0
0
0
0
0
0
0
0
0
0
0
0
0
0
0
0
0
0
0
0
0
0
0
0
0
0
0
0
0
0
0
0
0
0
0
0
0
0
0
0
0
0
0
0
0
0
0
0
0
0
0
0
0
0
0
0
0
0
0
0
0
0
1
0
1
0
0
0
0
0
0
0
1
1
1
1
0
0
0
0
0
0
0
0
0
0
0
0
0
0
0
0
0
0
0
0
0
0
0
0
0
0
0
0
1
1
0
0
0
0
0
0
0
0
0
0
0
0
0
0
0
0
0
0
1
0
0
0
0
0
0
0
1
1
0
1
1
0
0
1
0
0
0
0
0
0
0
1
0
1
0
0
0
0
0
0
0
0
0
0
0
0
0
0
0
0
0
0
0
0
0
0
0
0
0
0
0
1
1
0
0
0
1
1
0
0
0
0
1
0
0
1
0
1
0
0
0
0
0
1
0
0
0
1
0
0
0
0
0
0
0
0
0
0
0
0
0
0
0
0
0
0
0
0
0
0
0
0
0
0
0
1
0
0
0
0
0
0
1
0
0
0
0
0
0
0
0
0
0
0
0
0
0
0
0
0
0
0
0
0
0
0
0
0
0
0
0
0
1
0
1
0
0
0
0
0
0
0
1
0
0
0
0
0
0
0
0
0
0
0
1
0
0
0
0
0
0
0
0
0
1
0
0
0
0
0
0
0
1
0
0
0
0
0
0
0
1
0
0
0
0
0
0
0
0
0
0
0
0
0
0
0
0
0
0
0
1
0
1
0
0
0
0
0
1
0
0
0
0
0
0
0
0
0
0
0
0
0
0
0
0
0
0
0
0
0
0
0
0
0
1
0
1
0
0
0
0
0
0
0
0
0
1
0
0
0
0
0
1
0
0
0
0
0
0
0
0
0
0
0
0
0
0
0
1
0
0
0
0
0
0
0
0
1
0
0
0
0
0
0
0
0
0
0
0
0
0
0
0
0
0
0
0
0
0
0
0
0
0
0
0
0
0
0
1
0
0
0
0
0
0
0
0
0
0
0
0
0
0
0
0
1
0
0
0
0
0
0
0
0
1
0
0
0
0
0
0
0
0
0
1
0
0
0
0
0
1
0
0
0
0
0
0
0
0
0
0
0
0
0
0
0
0
0
0
0
1
0
0
0
0
0
0
1
0
0
0
0
0
0
0
0
1
0
0
0
0
0
0
0
0
0
0
0
0
0
0
1
0
0
1
0
0
0
1
0
0
0
0
0
0
0
0
0
0
0
0
0
0
0
0
1
0
0
0
0
0
0
0
0
0
0
1
0
1
0
0
0
0
0
0
1
0
0
0
0
0
0
0
0
0
0
0
0
0
0
0
0
0
0
0
0
0
0
0
0
0
0
0
1
1
0
0
0
0
0
0
1
0
0
0
0
0
0
0
0
0
0
0
0
0
1
0
0
0
0
0
0
0
1
0
0
0
0
0
0
0
0
0
0
0
0
0
0
0
0
0
0
0
0
0
0
0
0
0
0
0
1
0
0
0
0
0
0
0
0
0
0
1
0
0
1
0
0
0
0
0
0
0
0
0
0
0
0
0
0
0
0
0
0
0
0
0
0
0
0
0
0
0
0
0
1
0
0
0
0
0
0
0
1
0
0
0
0
0
0
0
1
0
0
0
0
1
0
0
0
0
0
0
0
0
0
0
0
1
0
1
0
0
0
1
0
				</DataArray>
				<DataArray type="Float64" Name="h" NumberOfComponents="1" Format="ascii">
1.1732100442
1.1732052923
1.1746532465
1.1732456746
1.1749121641
1.1745285154
1.1739812679
1.1725633549
1.1736333840
1.1714489639
1.1728034566
1.1741951462
1.1724850161
1.1722275015
1.1726545696
1.1714512022
1.1735722665
1.1716388372
1.1730286384
1.1725042946
1.1752190743
1.1725818984
1.1740092719
1.1755464670
1.1730943855
1.1710344852
1.1732944942
1.1766776931
1.1748934609
1.1717773711
1.1720549593
1.1742244056
1.1723665610
1.1747163982
1.1776950208
1.1758243129
1.1764142280
1.1741614647
1.1765528362
1.1756884182
1.1751221890
1.1771733493
1.1735282528
1.1750856953
1.1760424819
1.1762289928
1.1744049750
1.1783513490
1.1827353446
1.1820203629
1.1758981032
1.1760337581
1.1753260157
1.1794982557
1.1770103615
1.1736415160
1.1764583349
1.1795590624
1.1799173345
1.1794051063
1.1811890579
1.1807337224
1.1825636990
1.1762808041
1.1755056355
1.1777708673
1.1813063629
1.1818128582
1.1806368092
1.1801611451
1.1800533064
1.1773109990
1.1742325132
1.1801211127
1.1800327772
1.1768416135
1.1796055352
1.1810532558
1.1790006071
1.1768338352
1.1821784755
1.1783926558
1.1842225477
1.1810521440
1.1760195711
1.1776602603
1.1825861697
1.1802945853
1.1812207564
1.1836692905
1.1826443296
1.1770947084
1.1815855554
1.1830517698
1.1785052910
1.1779022740
1.1794566742
1.1762867795
1.1770248645
1.1825301936
1.1839095678
1.1822808782
1.1793662342
1.1789852969
1.1704185388
1.1806572681
1.1785307809
1.1831819533
1.1808943653
1.1787464114
1.1826446142
1.1832999735
1.1821555988
1.1826086170
1.1801980513
1.1842559574
1.1796009342
1.1709253908
1.1835500716
1.1810125566
1.1705659081
1.1797139843
1.1776743427
1.1698035005
1.1820764600
1.1834318666
1.1804315338
1.1696613408
1.1841462768
1.1842972563
1.1835924672
1.1788142893
1.1812560308
1.1846853868
1.1708303334
1.1834027241
1.1703691526
1.1847320872
1.1831996404
1.1716761405
1.1695165162
1.1702185874
1.1839834180
1.1725124519
1.1779489732
1.1832719828
1.1709485222
1.1851433400
1.1700381059
1.1854452368
1.1700189240
1.1849852541
1.1850047714
1.1857337120
1.1827810505
1.1847725882
1.1855025183
1.1699702171
1.1854544142
1.1688061179
1.1720077795
1.1851668333
1.1705899949
1.1692578856
1.1698118875
1.1846335022
1.1733912470
1.1712353872
1.1691477399
1.1849566662
1.1854313033
1.1687586938
1.1855942697
1.1697733783
1.1737204479
1.1856896230
1.1728458125
1.1850596042
1.1857115196
1.1691664282
1.1846126651
1.1745941243
1.1687305381
1.1779431355
1.1686544875
1.1683568685
1.1742771730
1.1856233129
1.1689394873
1.1682675307
1.1754510509
1.1857626545
1.1684332711
1.1751542683
1.1856546623
1.1849081052
1.1692657491
1.1762898900
1.1760071780
1.1854378065
1.1682280164
1.1784952978
1.1683229221
1.1856196537
1.1771121971
1.1685963999
1.1710782575
1.1698541110
1.1768394555
1.1726284104
1.1751814937
1.1684699652
1.1689840699
1.1684631271
1.1704267195
1.1760178028
1.1718197178
1.1689106188
1.1743300270
1.1685174986
1.1776557394
1.1831504201
1.1734733297
1.1818537591
1.1787367364
1.1852730826
1.1842591395
1.1804064849
1.1779101934
1.1837372184
1.1854633521
1.1825175300
1.1795782600
1.1853798309
1.1850416792
1.1811625572
1.1754747693
1.1712040237
1.1684081407
1.1727368914
1.1752183331
1.1699387108
1.1686801114
1.1729517745
1.1700770574
1.1713739300
1.1687029317
1.1746366829
1.1705316060
1.1690004958
1.1719453307
1.1743895871
1.1690679771
1.1762980040
1.1760336258
1.1685332376
1.1721380583
1.1706843965
1.1684645568
1.1822700789
1.1735577139
1.1786664476
1.1802571494
1.1817082519
1.1792645730
1.1848538865
1.1850641153
1.1776259342
1.1852673179
1.1829843368
1.1840576055
1.1737912801
1.1834987690
1.1808814457
1.1816009667
1.1778692097
1.1794674299
1.1810084655
1.1823663721
1.1784393750
1.1840311640
1.1851935923
1.1851159871
1.1848251222
1.1835524412
1.1829067024
1.1800909887
1.1713409922
1.1687907150
1.1687778272
1.1715055785
1.1755082908
1.1700580525
1.1701795896
1.1728526568
1.1752645597
1.1730560569
1.1706630797
1.1691061726
1.1685345891
1.1686243855
1.1708067613
1.1746928636
1.1760550451
1.1763085594
1.1720765650
1.1744603666
1.1722614408
1.1691617541
1.1785971072
1.1807205593
1.1801255712
1.1850736558
1.1775938904
1.1838480800
1.1821126259
1.1736522798
1.1833150113
1.1848436207
1.1738715809
1.1815503514
1.1791699843
1.1828041709
1.1846389648
1.1793666892
1.1799570165
1.1808578679
1.1849069340
1.1814409582
1.1827384668
1.1838318107
1.1846007385
1.1849872995
1.1778289137
1.1821995663
1.1783786035
1.1833571737
1.1716486742
1.1841600863
1.1729842167
1.1753194872
1.1731692620
1.1688973669
1.1755480856
1.1702109197
1.1714996659
1.1703150665
1.1688980838
1.1834148414
1.1788691387
1.1760825392
1.1814542010
1.1709507459
1.1692779347
1.1837113274
1.1722255531
1.1794746169
1.1745427808
1.1723934155
1.1820946607
1.1825425209
1.1839912672
1.1686256596
1.1747580612
1.1763227146
1.1708226707
1.1775142909
1.1783972565
1.1802081314
1.1687413303
1.1807328101
1.1828283529
1.1692381583
1.1846154075
1.1819417318
1.1813916911
1.1844165233
1.1697716415
1.1836341617
1.1785332963
1.1775648936
1.1831208287
1.1848630910
1.1737608776
1.1826180651
1.1739616385
1.1790813938
1.1805740150
1.1800055097
1.1733702122
1.1847679399
1.1777938952
1.1812788760
1.1764638945
1.1843714334
1.1820277016
1.1699549508
1.1716235307
1.1722026038
1.1751993264
1.1792742550
1.1836247868
1.1745779219
1.1825572811
1.1758293633
1.1846864580
1.1831564517
1.1783204168
1.1798369470
1.1739679405
1.1807150816
1.1781889202
1.1821893323
1.1788209654
1.1718136565
1.1837536040
1.1832059797
1.1732975903
1.1820234789
1.1789292610
1.1775100809
1.1768590882
1.1704840036
1.1830109165
1.1838134134
1.1809770252
1.1842322787
1.1690310428
1.1823760879
1.1755949464
1.1795464601
1.1837503651
1.1813211905
1.1832248630
1.1801156047
1.1808481526
1.1825230751
1.1827258028
1.1839664705
1.1775086229
1.1787828970
1.1805557599
1.1711221962
1.1818233907
1.1783535565
1.1725433760
1.1796303872
1.1793731862
1.1816039888
1.1822254302
1.1812040135
1.1844144713
1.1687425220
1.1782233797
1.1748329356
1.1768594592
1.1836384352
1.1830501338
1.1800373960
1.1833455956
1.1694255172
1.1763424604
1.1720070037
1.1846415055
1.1740642036
1.1817701567
1.1803162385
1.1790009349
1.1756599601
1.1706910527
1.1841908479
1.1734434912
1.1829227601
1.1749169969
1.1775415030
1.1804393242
1.1833186675
1.1739100330
1.1691985220
1.1700075149
1.1705016197
1.1763677971
1.1713273522
1.1844599483
1.1823030962
1.1827657445
1.1834146575
1.1710508040
1.1811232168
1.1720578096
1.1787380864
1.1782683479
1.1833727093
1.1696111926
1.1699556179
1.1727831744
1.1727161556
1.1829565549
1.1823722472
1.1709581408
1.1809702025
1.1819878923
1.1733551272
1.1722030796
1.1751996246
1.1741797020
1.1797282435
1.1688892724
1.1770691521
1.1793238483
1.1710502127
1.1756484743
1.1804938924
1.1734439828
1.1775092094
1.1691996311
1.1811071797
1.1781437511
1.1692382205
1.1733093344
1.1756490238
1.1794176077
1.1787559450
1.1841072337
1.1719115184
1.1820968323
1.1711738457
1.1799760723
1.1768890406
1.1754523098
1.1817369626
1.1720076469
1.1806360750
1.1706364503
1.1706919867
1.1753499314
1.1696123024
1.1727166994
1.1688903640
1.1768892153
1.1763683850
1.1748106387
1.1729611680
1.1689669677
1.1738297321
1.1726018982
1.1703972490
1.1749175051
1.1743036082
1.1725381007
1.1835740430
1.1733854596
1.1712510241
1.1765074162
1.1696145840
1.1771124459
1.1761549230
1.1720828662
1.1826665464
1.1833739307
1.1747405798
1.1715419254
1.1830512440
1.1713281345
1.1759175249
1.1827283920
1.1741801849
1.1803172819
1.1798994282
1.1844169191
1.1740244932
1.1793424436
1.1815283874
1.1799297229
1.1789300472
1.1694755787
1.1775248237
1.1781245971
1.1804942378
1.1748502955
1.1728330940
1.1816063851
1.1809705077
1.1719303088
1.1787294959
1.1709234154
1.1839678850
1.1821921251
1.1796311741
1.1737834098
1.1842342198
1.1752398230
1.1728061497
1.1759373650
1.1737935114
1.1782242237
1.1755251500
1.1691760154
1.1832827571
1.1744777498
1.1762708779
1.1741748466
1.1830742201
1.1721738838
1.1809787081
1.1736567277
1.1745109854
1.1824525773
1.1832079795
1.1739183065
1.1741591938
1.1703649694
1.1820667550
1.1737400811
1.1781246927
1.1715325398
1.1798840541
1.1706372773
1.1740249637
1.1754527966
1.1719121473
1.1837297377
1.1777249873
1.1698765402
1.1692392315
1.1735015159
1.1750722924
1.1822972283
1.1696155721
1.1741092212
1.1745110560
1.1746340610
1.1740260050
1.1761554350
1.1733098358
1.1747410479
1.1712517448
1.1815285328
1.1826105661
1.1809314640
1.1793177460
1.1689679808
1.1742331979
1.1749293309
1.1751059916
1.1834366099
1.1816340197
1.1765074993
1.1738759503
1.1827867769
1.1762138459
1.1731356164
1.1696767125
1.1712544112
1.1771818039
1.1744430763
1.1757705796
1.1726024539
1.1810798220
1.1724953343
1.1693081924
1.1706720781
1.1804234183
1.1819354418
1.1828723644
1.1805932059
1.1756854622
1.1737854246
1.1701386643
1.1718663897
1.1830989305
1.1832312457
1.1753500844
1.1740683573
1.1748884380
1.1743141906
1.1815073373
1.1746550034
1.1743100247
1.1831070433
1.1827375622
1.1740998325
1.1738498185
1.1817716576
1.1737540054
1.1738974982
1.1753910700
1.1822308794
1.1829629696
1.1825232101
1.1735213573
1.1733103695
1.1757130232
1.1746184525
1.1743329163
1.1821388286
1.1824400965
1.1814035320
1.1817932052
1.1772805397
1.1826963283
1.1829230961
1.1749760934
1.1826101574
1.1822262978
1.1739184005
1.1830555963
1.1733857353
1.1828087506
1.1723147895
1.1727501257
1.1830659398
1.1737402091
1.1829247129
1.1831591121
1.1715423876
1.1830794211
1.1716692099
1.1717248757
1.1828618519
1.1832725374
1.1701603210
1.1737648455
1.1739868700
1.1739827259
1.1737591423
1.1737794434
1.1741959725
1.1728045822
1.1730215518
1.1746893938
1.1745308193
1.1749094162
1.1746850119
1.1736304101
1.1726572399
1.1739834538
1.1719348813
1.1730195695
1.1737780063
1.1722438620
1.1716392897
1.1732449286
1.1746518108
1.1730343073
1.1717775580
1.1716177025
1.1741369917
1.1725613185
1.1710332800
1.1730942708
1.1714487965
1.1722356367
1.1724818457
1.1751857403
1.1718451777
1.1733965075
1.1719341887
1.1720546593
1.1722416119
1.1747159878
1.1723700781
1.1742324271
1.1727271931
1.1756896737
1.1761211365
1.1735729157
1.1714507452
1.1735358083
1.1765614729
1.1741367611
1.1716170588
1.1751279082
1.1722271389
1.1725051241
1.1751847965
1.1740001258
1.1785156647
1.1725777295
1.1763536114
1.1722324408
1.1752187511
1.1733891678
1.1731717620
1.1773682912
1.1783511959
1.1718439145
1.1760448327
1.1758978128
1.1744155200
1.1766690810
1.1755444308
1.1748857616
1.1764659231
1.1755280841
1.1732880540
1.1769691367
1.1712874505
1.1761129977
1.1774243599
1.1777094729
1.1727230407
1.1753352802
1.1785158537
1.1824908375
1.1820498289
1.1731647644
1.1763529592
1.1768041509
1.1773630089
1.1758205201
1.1755167307
1.1741515300
1.1780543517
1.1776949631
1.1825612281
1.1818096736
1.1775775212
1.1764140961
1.1762851425
1.1774222882
1.1791351730
1.1793684037
1.1750749478
1.1801195758
1.1791529400
1.1773124588
1.1742404180
1.1801329900
1.1751634963
1.1752134332
1.1769684854
1.1812603904
1.1777096147
1.1771698286
1.1796048484
1.1800523807
1.1803599571
1.1800315848
1.1755186942
1.1745251482
1.1806359691
1.1771297716
1.1712873927
1.1801606214
1.1768027507
1.1780540463
1.1775609468
1.1775733537
1.1812774672
1.1784187473
1.1817866940
1.1827377609
1.1760275033
1.1820525774
1.1762199346
1.1783948566
1.1810490568
1.1782524988
1.1824941820
1.1820239652
1.1811897185
1.1807341188
1.1745154813
1.1816608215
1.1803616674
1.1799181596
1.1790706396
1.1791533473
1.1762849628
1.1745667014
1.1791356613
1.1771300063
1.1781272297
1.1770079720
1.1805661078
1.1801335871
1.1812609830
1.1736350390
1.1786237799
1.1802546737
1.1751562216
1.1794983646
1.1793690896
1.1794056995
1.1770989132
1.1795596073
1.1752031679
1.1815845905
1.1812797799
1.1789849319
1.1770317986
1.1782515301
1.1754465885
1.1784185390
1.1822802573
1.1811139354
1.1820200962
1.1805075718
1.1777659452
1.1839101380
1.1813101964
1.1783646413
1.1762936005
1.1818014088
1.1779062545
1.1784942861
1.1817913613
1.1825294829
1.1806536381
1.1775558028
1.1844520946
1.1786221605
1.1808931643
1.1832984052
1.1816616247
1.1802558560
1.1821542583
1.1781268144
1.1768388038
1.1823942354
1.1790711338
1.1810543407
1.1745596692
1.1828158371
1.1762817138
1.1826406309
1.1787489293
1.1805669380
1.1820210023
1.1844505298
1.1792589045
1.1818018963
1.1776572403
1.1797137314
1.1809707157
1.1783649382
1.1707279561
1.1784939299
1.1805090136
1.1760145670
1.1768280807
1.1825868088
1.1842208162
1.1821790935
1.1796016678
1.1790010700
1.1811187233
1.1705645575
1.1802968683
1.1754410575
1.1828165688
1.1788154439
1.1819641384
1.1704709782
1.1834311880
1.1818201808
1.1828538866
1.1812223175
1.1785032784
1.1830546998
1.1839775908
1.1836693790
1.1826451826
1.1832966753
1.1795826876
1.1820741839
1.1804302023
1.1823998358
1.1842976451
1.1793656825
1.1840730870
1.1817214152
1.1792584183
1.1707293157
1.1809727224
1.1828052491
1.1708294775
1.1834023556
1.1812535944
1.1704199686
1.1794578712
1.1779506452
1.1813034144
1.1702173524
1.1818220360
1.1704730434
1.1839771186
1.1826102621
1.1831831554
1.1706177786
1.1795830106
1.1828550023
1.1801989519
1.1700366000
1.1819696042
1.1839834581
1.1695061128
1.1842555232
1.1818216829
1.1832716274
1.1832974155
1.1785303685
1.1703556229
1.1771161494
1.1810663895
1.1851858254
1.1840725369
1.1828072646
1.1698144908
1.1845111631
1.1838295524
1.1830675036
1.1810149229
1.1817283336
1.1849848436
1.1709261549
1.1834150784
1.1835504822
1.1712358361
1.1700161632
1.1850048161
1.1827805266
1.1706199197
1.1695076111
1.1712344767
1.1698099788
1.1818246003
1.1853217623
1.1703568503
1.1694412323
1.1852662604
1.1805848148
1.1813090534
1.1698047874
1.1841463813
1.1720089071
1.1701100128
1.1776733509
1.1835927539
1.1710785242
1.1705877751
1.1838454255
1.1851673672
1.1696629015
1.1854544848
1.1830679534
1.1703715407
1.1846857080
1.1851205101
1.1802507136
1.1838289605
1.1846373657
1.1847319274
1.1855940359
1.1715026998
1.1699986558
1.1832001518
1.1712363833
1.1810728366
1.1698171545
1.1851860663
1.1771147957
1.1834154840
1.1849571733
1.1840097685
1.1845112409
1.1854309582
1.1697711716
1.1854451423
1.1687288169
1.1797172565
1.1701116377
1.1694429611
1.1843987617
1.1853438370
1.1855970792
1.1725092631
1.1851427106
1.1709497872
1.1691644755
1.1852657838
1.1710793309
1.1805889277
1.1688909254
1.1695183952
1.1846135936
1.1838456755
1.1728489048
1.1836525250
1.1716753496
1.1853215966
1.1690353090
1.1689378611
1.1847719193
1.1855027346
1.1700011987
1.1793602199
1.1851203255
1.1705921098
1.1715036177
1.1802547348
1.1686529376
1.1846369201
1.1857341086
1.1699722048
1.1840102139
1.1742821648
1.1787987002
1.1856543982
1.1733863817
1.1690370797
1.1843974861
1.1849095497
1.1688927482
1.1855972529
1.1836530169
1.1848903788
1.1686434873
1.1853437881
1.1797189740
1.1691474587
1.1857623565
1.1843922835
1.1692597747
1.1846324159
1.1751580622
1.1852526601
1.1688078187
1.1784949050
1.1856484739
1.1687602769
1.1683212549
1.1737162988
1.1856193723
1.1793618968
1.1691491988
1.1682263225
1.1705932136
1.1760093219
1.1855742225
1.1857118217
1.1693876108
1.1686451434
1.1691491496
1.1684683294
1.1852520805
1.1848892208
1.1688226772
1.1846949351
1.1745903997
1.1843927579
1.1856899180
1.1787989881
1.1683489883
1.1682895530
1.1850583964
1.1689821153
1.1768403895
1.1754486927
1.1854632041
1.1856487879
1.1682692094
1.1855744525
1.1854876726
1.1855357848
1.1779429555
1.1683584942
1.1856235523
1.1776557748
1.1687013165
1.1713731315
1.1694616600
1.1700745543
1.1762889035
1.1682911742
1.1768343977
1.1685473057
1.1729534849
1.1693418571
1.1693897793
1.1754753294
1.1684348844
1.1683590054
1.1846929734
1.1692679322
1.1684175469
1.1706824468
1.1695334006
1.1762978404
1.1721386867
1.1690659839
1.1746381025
1.1683505764
1.1684066328
1.1688244785
1.1853120107
1.1770989358
1.1771120531
1.1854877633
1.1829014757
1.1737932468
1.1855360409
1.1815929331
1.1784390579
1.1851166116
1.1840319625
1.1846999961
1.1800874633
1.1776253668
1.1834968725
1.1854379228
1.1822624083
1.1792633061
1.1852673427
1.1844904406
1.1848554732
1.1808751615
1.1751799154
1.1715048120
1.1694262358
1.1685190813
1.1730566981
1.1755080382
1.1693441703
1.1768344933
1.1694640690
1.1686231599
1.1768277852
1.1701774612
1.1687891626
1.1685489331
1.1726264128
1.1698566674
1.1710793365
1.1685979593
1.1743275560
1.1708051393
1.1691598692
1.1683605363
1.1722615570
1.1746931036
1.1689124910
1.1760171536
1.1763078624
1.1696275300
1.1684820034
1.1718192074
1.1695357941
1.1704288749
1.1684189959
1.1825235944
1.1738722157
1.1770843303
1.1783782288
1.1799548139
1.1814336783
1.1795801317
1.1844885010
1.1850404775
1.1849072860
1.1779107988
1.1853801174
1.1844862181
1.1827318645
1.1838310367
1.1734705939
1.1853117628
1.1837377014
1.1811688912
1.1818609521
1.1775929639
1.1791693778
1.1807157082
1.1821045784
1.1787373918
1.1842576317
1.1846980706
1.1850734614
1.1770997213
1.1852729517
1.1846400383
1.1833113310
1.1842780966
1.1831538362
1.1804106377
1.1716479356
1.1695365282
1.1686816279
1.1686247883
1.1688959274
1.1712050183
1.1752179430
1.1768238871
1.1703133837
1.1768284390
1.1699409981
1.1731692344
1.1755474924
1.1727359428
1.1694284275
1.1709494608
1.1692762687
1.1684833739
1.1685631873
1.1705334798
1.1743886388
1.1763218567
1.1697523975
1.1760337831
1.1696296813
1.1723931565
1.1747577488
1.1719452369
1.1690023359
1.1783197169
1.1810143594
1.1798357902
1.1851939692
1.1778701321
1.1836227553
1.1823737794
1.1739615583
1.1835546124
1.1842771909
1.1842660233
1.1846859358
1.1770730818
1.1735564807
1.1812736666
1.1794687998
1.1825510400
1.1848239855
1.1790809296
1.1802605111
1.1805710401
1.1850639300
1.1770853915
1.1840594158
1.1817158542
1.1829895646
1.1840572626
1.1844165094
1.1848621216
1.1775637366
1.1819351420
1.1786670939
1.1831164636
1.1844847805
1.1837520500
1.1795457721
1.1768249471
1.1820218266
1.1713418976
1.1695384423
1.1840142579
1.1834019343
1.1732972192
1.1790617760
1.1755942968
1.1728524352
1.1815543632
1.1830093368
1.1839476259
1.1687792609
1.1752647939
1.1768248455
1.1704827412
1.1718129598
1.1700599535
1.1781883430
1.1777351872
1.1808471162
1.1690297527
1.1803587152
1.1825871058
1.1696789755
1.1836036566
1.1791205452
1.1763416885
1.1816996463
1.1706646111
1.1691078651
1.1841953833
1.1835537338
1.1725429067
1.1797187040
1.1748324259
1.1720767999
1.1818698875
1.1827655070
1.1841052622
1.1685644779
1.1744602514
1.1760556435
1.1699125654
1.1711212021
1.1697541812
1.1777471949
1.1781620098
1.1804633190
1.1686674589
1.1809732823
1.1830250965
1.1694241262
1.1737054650
1.1844584909
1.1770678049
1.1822066518
1.1758801892
1.1840419579
1.1811201399
1.1846004159
1.1700068046
1.1701398055
1.1718660249
1.1834122764
1.1720573776
1.1747039531
1.1782673967
1.1840598207
1.1778299525
1.1749596544
1.1833605827
1.1762360126
1.1849880469
1.1740638042
1.1823676434
1.1736519576
1.1793675835
1.1808622825
1.1736071260
1.1797274283
1.1733547718
1.1846395926
1.1775404181
1.1815568011
1.1762706551
1.1841898623
1.1817658358
1.1842657661
1.1695965237
1.1697604413
1.1716900634
1.1838387464
1.1722529532
1.1750609558
1.1790002290
1.1838491263
1.1770741331
1.1744774612
1.1828100221
1.1756597226
1.1848439373
1.1829189955
1.1785977948
1.1801277765
1.1739097025
1.1804376631
1.1784331832
1.1822849805
1.1824336764
1.1838192799
1.1781434588
1.1790623504
1.1794171779
1.1801981848
1.1715004607
1.1839216898
1.1813175488
1.1834216675
1.1839201952
1.1777259786
1.1729844271
1.1822595963
1.1791916749
1.1777355912
1.1798007683
1.1770761374
1.1789804568
1.1702123876
1.1832182952
1.1839492787
1.1812396406
1.1826655424
1.1822575058
1.1817361606
1.1843853661
1.1688993973
1.1777664869
1.1825885773
1.1753200003
1.1775147715
1.1775097432
1.1835728044
1.1833727069
1.1798015460
1.1806354815
1.1836264537
1.1815556067
1.1834032559
1.1830517323
1.1696805293
1.1768259225
1.1803594912
1.1811005352
1.1838117650
1.1788697988
1.1826963602
1.1829571257
1.1823748838
1.1841425984
1.1777287564
1.1783977238
1.1790153079
1.1807736620
1.1708238516
1.1840160431
1.1816220224
1.1836220514
1.1781313269
1.1722259864
1.1825443298
1.1798967910
1.1770869627
1.1770866449
1.1795980108
1.1699139504
1.1834163571
1.1837128335
1.1818589273
1.1824263040
1.1814265778
1.1845423619
1.1686686650
1.1784779277
1.1801149454
1.1820960334
1.1745430808
1.1770765769
1.1837283685
1.1832169286
1.1802089525
1.1802702252
1.1838042366
1.1809742420
1.1830264478
1.1832123072
1.1692396267
1.1760832894
1.1797193258
1.1814556388
1.1716878915
1.1847693394
1.1820662286
1.1830733560
1.1838400156
1.1737610527
1.1705022602
1.1820331092
1.1722533853
1.1793422347
1.1805827612
1.1792750165
1.1758296349
1.1832819003
1.1698595717
1.1701404581
1.1704015233
1.1843721682
1.1730863682
1.1731360148
1.1827860781
1.1831600048
1.1711317491
1.1806470311
1.1824020702
1.1737058769
1.1716240513
1.1755961975
1.1755965005
1.1746367216
1.1777949068
1.1807178584
1.1834162736
1.1739682983
1.1752832235
1.1690488008
1.1697723928
1.1775240745
1.1789423588
1.1706049088
1.1715158415
1.1761162165
1.1704209315
1.1810286436
1.1710164369
1.1846165741
1.1824519703
1.1829077940
1.1836360232
1.1707095652
1.1813961388
1.1716905396
1.1789564171
1.1785341071
1.1752834607
1.1834356784
1.1694048569
1.1697611522
1.1701136876
1.1840427970
1.1728057546
1.1723993813
1.1830640979
1.1826230966
1.1706054986
1.1811588552
1.1821647455
1.1733705982
1.1718665380
1.1750612245
1.1730879153
1.1738851782
1.1770686489
1.1800068773
1.1834944601
1.1736074321
1.1688000400
1.1695972756
1.1712712468
1.1768317823
1.1795331221
1.1702018272
1.1711311921
1.1753826086
1.1807011670
1.1757100032
1.1698607720
1.1731364663
1.1777261657
1.1690499664
1.1813181823
1.1775088471
1.1768325355
1.1744296170
1.1783717148
1.1730297656
1.1694106062
1.1736570664
1.1835186175
1.1736075012
1.1796511569
1.1705977813
1.1753831807
1.1746087235
1.1796516630
1.1804643456
1.1789807827
1.1726812808
1.1832166897
1.1841977599
1.1775090669
1.1777477527
1.1835198918
1.1736158335
1.1722342024
1.1822858230
1.1827675175
1.1768984780
1.1709493894
1.1784325192
1.1700853779
1.1801986460
1.1807335847
1.1770979003
1.1765134821
1.1832235837
1.1768437755
1.1723145622
1.1841621717
1.1828981015
1.1781624325
1.1819493966
1.1834629578
1.1757082682
1.1716531226
1.1819503364
1.1828519885
1.1716886084
1.1753929371
1.1808652040
1.1709454513
1.1704026179
1.1828296097
1.1752075120
1.1694060741
1.1723999343
1.1771073188
1.1688011519
1.1807741876
1.1770981193
1.1799756659
1.1761168847
1.1747119495
1.1787832457
1.1731192665
1.1690750416
1.1738496166
1.1729145179
1.1706494487
1.1746371972
1.1742594876
1.1788204540
1.1800378968
1.1783537878
1.1727498087
1.1839929698
1.1820960883
1.1836278003
1.1734752195
1.1715741099
1.1818241198
1.1763097926
1.1709496918
1.1698456931
1.1795983782
1.1834618120
1.1771071821
1.1769018416
1.1763988541
1.1723144501
1.1826972773
1.1833467167
1.1750094361
1.1717493314
1.1822263428
1.1830527387
1.1710173499
1.1757423074
1.1812047009
1.1703633914
1.1701147405
1.1829599597
1.1738856051