<VTKFile type="UnstructuredGrid" version="0.1">
	<UnstructuredGrid>
		<Piece NumberOfPoints="1862" NumberOfCells="3498">
			<CellData>
				<DataArray type="Int32" Name="type" NumberOfComponents="1" Format="ascii">
0
0
0
0
0
0
0
0
0
0
0
0
0
0
0
0
1
0
0
1
0
0
0
0
0
0
0
0
0
0
0
0
0
1
0
0
0
0
0
0
0
0
0
0
0
0
0
0
0
0
1
0
0
0
0
0
0
0
0
0
0
1
0
0
0
0
0
0
0
0
0
0
0
0
0
0
0
0
0
0
0
0
0
0
0
0
0
0
0
0
0
0
0
0
0
0
0
0
0
0
0
0
0
0
0
0
0
0
0
0
0
0
0
0
0
0
0
0
0
0
0
0
0
1
0
0
0
0
0
0
0
0
0
0
0
0
0
0
0
0
0
0
0
0
0
0
0
0
0
0
0
1
0
1
1
0
0
0
0
0
0
0
0
0
0
0
0
0
1
0
1
0
0
0
0
1
0
0
0
0
0
0
0
0
1
1
0
0
0
0
0
1
0
0
0
0
0
0
0
0
1
0
0
0
0
0
0
0
0
0
0
0
0
0
0
0
0
0
0
0
0
0
0
0
0
0
0
0
0
0
0
0
0
1
0
0
0
0
0
0
0
0
0
0
0
0
0
0
0
0
0
0
0
0
0
0
0
0
0
0
0
0
0
0
0
0
0
0
0
0
0
0
0
0
0
0
0
0
0
0
0
1
0
0
0
0
0
0
0
0
0
0
0
0
0
0
0
0
0
0
0
0
0
0
0
0
0
0
0
0
0
0
0
0
0
0
0
0
0
0
0
0
0
0
0
0
0
0
0
0
0
0
1
0
0
0
0
0
0
0
0
0
0
0
0
0
0
0
0
0
0
0
0
0
0
0
0
0
0
0
0
0
0
0
0
0
0
0
0
0
0
0
0
0
0
0
0
0
0
0
0
0
0
0
0
0
0
0
0
0
1
0
0
0
0
0
0
0
0
0
0
0
0
0
0
0
0
0
0
0
0
0
0
0
0
0
0
0
0
0
0
0
0
0
0
0
0
0
0
0
0
0
0
0
0
0
0
0
0
0
0
0
0
0
0
0
0
0
0
0
0
0
0
0
0
0
0
0
0
0
0
0
0
0
0
0
0
0
0
0
0
0
0
0
0
0
0
0
0
0
0
0
0
0
0
0
0
0
0
0
0
0
0
0
0
0
0
0
0
0
0
0
0
0
0
0
0
0
0
0
0
0
0
0
0
0
0
0
0
0
0
0
0
1
0
0
0
0
0
0
0
0
0
0
0
0
0
0
0
0
0
0
0
1
0
0
0
0
0
0
0
0
0
0
0
0
0
0
0
0
0
0
0
0
0
0
0
0
0
0
0
0
0
0
0
0
0
0
0
0
0
0
0
0
0
0
0
0
0
0
0
0
0
0
0
0
0
1
0
0
0
0
0
0
0
0
0
0
0
0
0
0
0
0
0
0
0
0
0
0
0
1
0
0
0
0
0
0
0
0
0
0
0
0
0
0
0
0
0
0
0
1
0
0
0
1
0
0
0
0
0
0
0
0
0
0
0
0
0
0
0
0
0
0
0
0
0
0
0
0
0
1
0
0
0
0
0
0
0
1
0
0
0
0
0
0
0
0
0
0
0
0
0
0
0
0
0
0
0
0
0
0
0
0
0
0
1
0
0
0
0
0
0
0
1
0
0
0
0
0
0
1
0
0
0
0
0
0
0
0
0
0
0
0
0
0
0
0
0
0
0
0
0
0
0
0
0
0
0
0
0
0
0
0
0
0
0
0
0
0
1
0
0
0
0
0
1
0
0
0
0
0
0
0
1
0
0
0
0
0
0
0
0
0
0
0
0
0
1
0
0
0
0
0
0
0
0
0
0
0
0
0
0
0
0
0
0
0
0
0
0
0
0
0
0
0
0
0
0
0
0
0
0
0
0
0
0
0
0
0
0
0
0
0
0
0
0
0
0
0
0
0
1
0
0
0
0
0
0
0
0
0
0
0
0
0
0
0
0
0
0
0
1
0
0
0
0
0
0
0
0
0
1
0
0
0
0
0
0
0
0
0
0
0
0
0
0
0
0
0
0
0
0
0
0
0
0
0
0
0
0
0
1
0
1
0
0
0
0
0
0
0
0
0
0
0
0
0
0
0
0
0
0
0
0
0
0
0
0
0
0
0
1
0
0
0
1
0
0
0
0
0
0
0
0
0
0
0
0
0
0
0
0
0
0
0
0
0
0
0
0
0
0
0
0
1
0
0
0
0
0
0
0
0
0
0
0
0
0
0
0
0
0
0
0
0
0
0
0
0
0
1
0
0
0
0
0
0
0
0
0
0
0
0
0
0
0
0
0
0
0
0
0
0
0
1
0
0
0
0
0
0
1
0
0
0
0
0
0
0
0
0
0
0
1
0
0
0
0
0
0
0
0
0
0
0
0
0
0
0
0
0
0
0
0
1
0
0
0
0
0
0
0
0
0
0
0
1
0
0
0
0
0
0
0
0
0
0
0
0
0
0
0
0
0
0
0
0
0
1
0
0
0
0
0
0
0
0
0
1
1
0
1
0
1
0
0
0
0
0
0
0
0
0
0
0
1
0
0
0
0
0
1
1
0
0
0
0
0
0
1
0
0
0
0
0
1
1
1
0
0
0
0
0
0
0
0
0
0
0
0
1
1
0
0
1
0
0
0
0
0
1
0
0
0
1
0
1
0
0
0
0
0
0
0
1
0
0
0
0
0
0
0
1
0
0
1
0
0
0
0
0
0
0
0
0
0
0
0
0
0
0
1
0
0
0
0
0
0
0
0
0
0
0
0
0
0
0
0
0
0
0
0
0
0
0
0
0
0
0
0
0
0
0
0
0
0
0
0
1
0
0
0
0
0
0
1
0
0
0
1
0
0
0
0
0
0
0
0
0
0
0
1
0
0
0
0
0
0
0
0
0
0
0
0
0
0
0
0
0
0
0
0
0
0
0
0
0
0
0
0
0
0
0
0
0
0
0
0
0
0
0
0
1
1
0
0
0
0
0
0
0
0
0
0
0
0
0
1
0
0
0
0
0
0
0
0
0
0
0
0
0
0
0
0
0
0
0
0
0
0
0
0
0
0
0
0
0
0
0
0
0
0
0
0
0
0
0
0
0
0
0
0
0
0
0
0
0
0
0
0
0
0
0
0
0
0
0
0
0
0
0
0
0
0
0
0
0
0
0
0
1
1
0
0
0
0
0
0
0
0
1
0
0
0
0
0
0
0
0
0
0
0
0
0
0
0
0
0
0
0
0
0
0
0
1
0
0
0
0
0
0
0
0
0
0
0
0
0
0
0
0
1
0
0
0
0
0
0
0
0
0
0
0
0
0
0
0
0
0
0
0
0
0
0
0
0
0
0
0
0
0
0
0
0
0
0
0
0
0
0
0
0
0
0
0
0
0
0
0
0
0
0
0
0
0
0
0
0
0
0
0
0
0
0
0
0
0
0
0
0
0
0
0
0
0
0
0
0
0
0
0
0
0
0
0
0
0
0
0
0
0
0
1
1
0
0
0
0
0
1
0
0
0
0
0
0
0
0
0
0
0
0
1
0
0
0
0
0
0
0
0
0
0
0
0
0
0
0
0
0
0
0
0
0
0
0
0
0
0
0
0
0
0
0
0
0
0
0
0
0
0
0
0
0
0
0
0
0
0
0
0
0
0
0
0
0
1
0
1
0
0
0
0
0
0
0
0
0
0
0
0
0
0
0
0
0
0
1
0
0
0
0
0
0
0
0
0
0
0
0
0
0
0
0
0
0
0
0
0
0
0
0
0
0
0
0
0
0
0
0
0
0
0
0
0
0
0
0
0
0
0
0
0
0
0
0
0
0
0
0
0
0
0
0
0
0
0
0
0
0
0
0
0
0
0
0
0
0
1
0
0
0
0
0
0
0
0
0
0
1
0
0
0
0
0
0
0
0
0
0
0
0
0
0
0
0
0
0
0
0
0
0
0
0
0
0
0
0
0
0
0
0
0
0
0
0
0
1
0
0
0
0
0
0
0
0
0
0
0
0
0
0
0
0
0
0
0
0
0
0
0
0
0
0
0
0
0
0
0
0
0
0
0
0
0
0
0
0
0
0
0
0
0
0
0
0
0
0
0
0
0
0
0
0
0
0
0
0
0
0
0
0
0
0
0
0
0
0
0
0
0
0
0
0
0
0
0
0
0
1
0
0
0
0
0
0
0
0
0
0
0
0
0
0
0
0
0
0
0
0
0
0
0
0
0
0
0
0
0
0
0
0
0
0
0
0
0
0
0
0
0
0
0
0
0
0
0
0
0
0
0
0
0
0
0
0
0
0
0
0
0
0
0
0
0
0
0
0
0
0
0
0
0
0
0
0
0
0
0
0
0
0
0
0
0
0
0
0
0
0
0
0
0
0
0
0
0
0
0
0
0
0
0
0
0
0
0
0
0
0
0
0
0
0
0
0
0
0
0
0
0
0
0
1
0
0
0
0
0
0
0
0
0
0
0
0
0
0
0
0
0
0
0
0
0
0
0
0
0
0
0
0
0
0
0
0
0
0
0
0
0
0
0
0
0
0
0
0
0
0
0
0
0
0
0
0
0
0
0
0
0
0
0
0
0
0
0
0
0
0
0
0
0
0
0
0
0
0
0
0
0
0
0
0
0
1
0
0
0
0
0
0
0
1
0
0
0
0
0
0
0
0
0
0
0
0
0
0
0
0
0
0
0
0
0
0
0
0
0
0
0
0
0
0
0
0
0
0
0
0
0
1
0
0
0
0
0
0
0
0
0
0
0
0
0
0
0
0
0
0
0
0
0
1
0
0
0
0
0
0
0
0
0
0
0
0
1
1
0
0
0
0
0
0
0
0
0
0
0
0
0
0
0
1
1
0
1
0
0
0
0
0
0
0
0
0
1
0
0
0
0
0
0
1
0
0
0
0
0
0
0
0
0
0
1
0
0
0
0
1
0
1
0
0
0
0
0
0
0
1
0
0
0
1
0
0
0
1
0
1
1
0
0
1
1
0
0
0
1
0
0
0
1
0
0
0
0
0
0
0
0
0
1
0
0
0
0
0
0
1
0
0
0
0
0
0
0
0
0
0
0
0
0
0
0
0
0
0
0
0
0
0
0
0
0
0
0
1
0
0
1
0
0
0
0
0
0
0
0
0
0
0
0
0
0
0
0
0
0
1
0
0
1
0
0
0
0
0
0
0
0
0
0
0
1
0
0
1
0
0
0
0
0
0
0
0
0
0
0
1
1
0
0
0
0
0
0
0
0
0
0
0
0
1
0
0
0
0
0
0
0
0
0
0
0
0
0
0
0
0
0
1
0
0
0
0
0
0
0
0
0
0
0
0
0
0
0
0
0
1
0
0
0
0
0
0
0
0
0
0
0
0
0
0
0
0
0
0
0
0
0
0
0
0
0
0
0
0
0
0
0
0
0
0
0
0
0
0
0
0
1
0
0
0
0
0
0
0
0
0
0
0
0
0
0
0
0
0
0
0
0
0
0
0
0
0
0
0
0
0
0
0
0
0
0
0
0
0
0
0
0
0
0
0
0
0
1
0
0
0
0
0
0
0
0
0
0
0
0
0
0
0
0
0
0
0
0
0
0
0
0
0
0
0
0
0
0
0
0
0
0
0
0
0
0
0
0
0
0
0
0
0
0
0
1
0
0
0
0
0
0
0
0
0
0
1
0
0
0
0
0
0
0
0
0
0
0
0
0
0
0
1
0
0
1
0
0
0
0
0
0
0
0
0
0
0
0
0
0
0
0
0
0
0
0
0
0
0
1
0
0
0
0
0
0
0
0
0
0
0
0
0
0
0
0
0
0
0
0
0
0
0
0
0
0
0
0
0
0
0
0
0
0
0
1
0
0
0
0
0
0
0
0
0
0
0
0
0
0
0
0
0
0
0
0
0
0
0
0
0
0
0
0
0
0
0
0
0
0
0
0
0
0
0
0
0
0
0
0
0
0
0
0
0
0
0
0
0
0
0
0
0
0
0
0
0
0
0
0
0
0
0
0
0
0
0
0
0
0
0
0
1
0
0
0
0
0
0
0
0
0
0
0
0
0
0
0
0
0
0
0
0
0
0
0
0
0
0
0
0
0
0
0
0
0
0
0
0
0
0
0
1
0
0
0
0
0
0
0
0
0
0
0
0
1
1
0
0
0
0
0
0
0
0
0
0
0
0
0
0
0
0
0
0
0
0
0
0
0
0
0
0
0
0
0
0
0
0
0
0
0
0
0
0
0
0
0
0
0
0
0
0
0
0
0
0
0
0
0
0
0
0
0
0
0
0
0
0
0
0
0
0
0
0
0
0
0
0
0
0
0
0
0
0
0
0
0
0
0
0
0
0
0
0
0
0
0
0
0
0
0
0
0
0
0
0
0
1
0
1
0
0
0
0
0
0
0
1
1
1
1
0
0
0
0
0
0
0
0
0
0
0
0
0
0
0
0
0
0
0
0
0
0
0
0
0
0
0
0
1
1
0
0
0
0
0
0
0
0
0
0
0
0
0
0
0
0
0
0
1
0
0
0
0
0
0
0
1
1
0
1
1
0
0
1
0
0
0
0
0
0
0
1
0
1
0
0
0
0
0
0
0
0
0
0
0
0
0
0
0
0
0
0
0
0
0
0
0
0
0
0
0
1
1
0
0
0
1
1
0
0
0
0
1
0
0
1
0
1
0
0
0
0
0
1
0
0
0
1
0
0
0
0
0
0
0
0
0
0
0
0
0
0
0
0
0
0
0
0
0
0
0
0
0
0
0
1
0
0
0
0
0
0
1
0
0
0
0
0
0
0
0
0
0
0
0
0
0
0
0
0
0
0
0
0
0
0
0
0
0
0
0
0
1
0
1
0
0
0
0
0
0
0
1
0
0
0
0
0
0
0
0
0
0
0
1
0
0
0
0
0
0
0
0
0
1
0
0
0
0
0
0
0
1
0
0
0
0
0
0
0
1
0
0
0
0
0
0
0
0
0
0
0
0
0
0
0
0
0
0
0
1
0
1
0
0
0
0
0
1
0
0
0
0
0
0
0
0
0
0
0
0
0
0
0
0
0
0
0
0
0
0
0
0
0
1
0
1
0
0
0
0
0
0
0
0
0
1
0
0
0
0
0
1
0
0
0
0
0
0
0
0
0
0
0
0
0
0
0
1
0
0
0
0
0
0
0
0
1
0
0
0
0
0
0
0
0
0
0
0
0
0
0
0
0
0
0
0
0
0
0
0
0
0
0
0
0
0
0
1
0
0
0
0
0
0
0
0
0
0
0
0
0
0
0
0
1
0
0
0
0
0
0
0
0
1
0
0
0
0
0
0
0
0
0
1
0
0
0
0
0
1
0
0
0
0
0
0
0
0
0
0
0
0
0
0
0
0
0
0
0
1
0
0
0
0
0
0
1
0
0
0
0
0
0
0
0
1
0
0
0
0
0
0
0
0
0
0
0
0
0
0
1
0
0
1
0
0
0
1
0
0
0
0
0
0
0
0
0
0
0
0
0
0
0
0
1
0
0
0
0
0
0
0
0
0
0
1
0
1
0
0
0
0
0
0
1
0
0
0
0
0
0
0
0
0
0
0
0
0
0
0
0
0
0
0
0
0
0
0
0
0
0
0
1
1
0
0
0
0
0
0
1
0
0
0
0
0
0
0
0
0
0
0
0
0
1
0
0
0
0
0
0
0
1
0
0
0
0
0
0
0
0
0
0
0
0
0
0
0
0
0
0
0
0
0
0
0
0
0
0
0
1
0
0
0
0
0
0
0
0
0
0
1
0
0
1
0
0
0
0
0
0
0
0
0
0
0
0
0
0
0
0
0
0
0
0
0
0
0
0
0
0
0
0
0
1
0
0
0
0
0
0
0
1
0
0
0
0
0
0
0
1
0
0
0
0
1
0
0
0
0
0
0
0
0
0
0
0
1
0
1
0
0
0
1
0
				</DataArray>
				<DataArray type="Float64" Name="h" NumberOfComponents="1" Format="ascii">
1.2138845687
1.2138961321
1.2121453913
1.2143304471
1.2115182935
1.2124230387
1.2130454997
1.2150819757
1.2137839507
1.2167044754
1.2150155293
1.2129271926
1.2143487020
1.2159033119
1.2147289441
1.2150947447
1.2138937730
1.2160433035
1.2137412281
1.2154704169
1.2113887996
1.2136011293
1.2119222999
1.2106653009
1.2146055234
1.2158879354
1.2116440419
1.2066160558
1.2109803047
1.2164683889
1.2161272041
1.2119391066
1.2134556778
1.2122510228
1.2070829576
1.2097842931
1.2094232291
1.2108647632
1.2061423876
1.2104538938
1.2108322930
1.2066106320
1.2117922970
1.2099191800
1.2095721484
1.2077494703
1.2109126725
1.2059394273
1.1940704452
1.1954323565
1.2103956377
1.2088380383
1.2098837947
1.2020176005
1.2075458733
1.2106063381
1.2077417835
1.2035435055
1.2023974580
1.2028381558
1.2001867649
1.2013902790
1.1948856653
1.2087129627
1.2087144795
1.2044110494
1.1966784117
1.1963118833
1.2013318428
1.2025849216
1.2021589931
1.2073876607
1.2097329688
1.2007619103
1.2015988714
1.2040883091
1.2032637931
1.2000104098
1.2046174097
1.2050565793
1.1978423782
1.2033282939
1.1899242178
1.1976063838
1.2059537243
1.2031862618
1.1968275937
1.1986972048
1.1991327811
1.1911182500
1.1960428562
1.2040971436
1.1988648507
1.1923969814
1.2021999534
1.2032111892
1.1999574921
1.2058271161
1.2051096571
1.1967253140
1.1908869505
1.1978776700
1.2010753644
1.2048739226
1.2179830109
1.1977299532
1.2011460950
1.1929129990
1.2001702712
1.2022029789
1.1934633740
1.1921647678
1.1972245413
1.1954915628
1.1998375939
1.1918842520
1.2010425322
1.2177620436
1.1931408064
1.1985061042
1.2180255826
1.1998766027
1.2021617366
1.2196820512
1.1967890611
1.1926622545
1.1997485067
1.2198856969
1.1926925409
1.1914393893
1.1937360250
1.2011039506
1.1983462078
1.1915399692
1.2178944504
1.1939251237
1.2166214751
1.1909631701
1.1956262751
1.2137758670
1.2200422286
1.2189333359
1.1926689530
1.2121845751
1.2021590857
1.1947770675
1.2151899136
1.1888410066
1.2191531595
1.1880925446
1.2171307978
1.1906106640
1.1901433110
1.1880111071
1.1966675675
1.1902733462
1.1888313162
1.2187830749
1.1883492455
1.2213537140
1.2128595609
1.1891118747
1.2156763315
1.2202156271
1.2193352179
1.1899940518
1.2104285810
1.2144473163
1.2208302523
1.1896942930
1.1891855332
1.2216629251
1.1884168474
1.2189073920
1.2093920875
1.1880103047
1.2111767939
1.1881026625
1.1879397599
1.2201798735
1.1904484737
1.2075651686
1.2212915960
1.2011551289
1.2217424718
1.2226371944
1.2086161278
1.1880036532
1.2212929124
1.2231782264
1.2057372121
1.1878627445
1.2222076901
1.2067819665
1.1880795125
1.1887128347
1.2193138018
1.2039065281
1.2049361482
1.1875431252
1.2232886692
1.2001855758
1.2228449457
1.1877658214
1.2020488517
1.2206543390
1.2141081996
1.2168964629
1.2030578512
1.2109124298
1.2056248814
1.2223439746
1.2199240373
1.2211972488
1.2155266496
1.2038118209
1.2125553933
1.2195377722
1.2074158534
1.2215144741
1.2011556764
1.1916583695
1.2091854405
1.1941127099
1.1991910212
1.1873566955
1.1893681299
1.1967531589
1.2001680912
1.1904631780
1.1875881375
1.1928893053
1.1980616665
1.1873198181
1.1877487076
1.1953846698
1.2045918314
1.2128081012
1.2219997226
1.2095749847
1.2044162723
1.2157016117
1.2196023512
1.2098756463
1.2160481662
1.2131847050
1.2201016852
1.2063680394
1.2143049547
1.2183877696
1.2112226949
1.2061569834
1.2188501262
1.2028043325
1.2026628863
1.2201772076
1.2115636825
1.2146777010
1.2211994179
1.1930836688
1.2078797974
1.1982770859
1.1960547550
1.1935374758
1.1981839609
1.1878292286
1.1870714823
1.2001417259
1.1872257531
1.1911307499
1.1889712099
1.2081346961
1.1906530461
1.1955990670
1.1943198218
1.1991899042
1.1972301690
1.1947902257
1.1923172923
1.1992363799
1.1895404208
1.1870034886
1.1873623302
1.1874523758
1.1899993610
1.1918519416
1.1969614518
1.2113789263
1.2189548423
1.2183605860
1.2118091778
1.2034020835
1.2143498818
1.2148266245
1.2081704508
1.2031872640
1.2085133491
1.2129033772
1.2170795852
1.2201791634
1.2189396303
1.2133642996
1.2051132273
1.2015146274
1.2016850646
1.2097946710
1.2048574433
1.2101822814
1.2176284781
1.1973778618
1.1949756672
1.1953042679
1.1868785254
1.1991383094
1.1885356231
1.1925001755
1.2065208111
1.1901653359
1.1867407028
1.2068189639
1.1929245048
1.1973144410
1.1905900439
1.1874962579
1.1963961836
1.1962012698
1.1941287573
1.1870392423
1.1937223230
1.1913079488
1.1891140318
1.1871055822
1.1866587887
1.1982353578
1.1917379522
1.1982940567
1.1895089872
1.2103317709
1.1855262486
1.2067178229
1.2019706199
1.2070995247
1.2176344934
1.2022133016
1.2128452537
1.2098538978
1.2134077468
1.2169471379
1.1863604158
1.1940894238
1.2003964912
1.1900366965
1.2118995726
1.2162677531
1.1853285748
1.2082955149
1.1925062678
1.2035495718
1.2087247903
1.1882596893
1.1880062422
1.1847733411
1.2189412422
1.2038399629
1.2005865384
1.2113761490
1.1956681805
1.1942506364
1.1921517677
1.2175094051
1.1904694068
1.1865639960
1.2156250824
1.1863724601
1.1919058655
1.1922831649
1.1871198710
1.2100708579
1.1880670365
1.1965070495
1.1981665034
1.1896542558
1.1865096592
1.2051331805
1.1900300134
1.2054689666
1.1964517185
1.1942805036
1.1945419599
1.2012032356
1.1862876171
1.1973227251
1.1930941534
1.1963142585
1.1867174844
1.1911372655
1.2086916019
1.2047020127
1.2033921878
1.1983231454
1.1955748126
1.1886535031
1.1992802945
1.1907506493
1.1973386960
1.1866793931
1.1889935478
1.1973730643
1.1954143025
1.2002301287
1.1934322933
1.1949315674
1.1895928941
1.1934405787
1.2087752715
1.1857751930
1.1876543544
1.2056559259
1.1889904097
1.1948213915
1.1950481074
1.1962893493
1.2118473321
1.1871131107
1.1849060151
1.1917634535
1.1858596979
1.2161561180
1.1874295882
1.2010572680
1.1931560257
1.1845394344
1.1894201881
1.1858297062
1.1915076057
1.1911006645
1.1854696849
1.1885756924
1.1862580480
1.1945655371
1.1928935341
1.1893752533
1.2103266047
1.1871129620
1.1932455810
1.2072130612
1.1938708410
1.1914772502
1.1906679626
1.1868646323
1.1888394853
1.1857019037
1.2175106841
1.1956719956
1.2025801990
1.1962899967
1.1837446517
1.1852903134
1.1909299908
1.1842645540
1.2147610050
1.1995360151
1.2071604717
1.1861187563
1.2041115614
1.1912937797
1.1928421901
1.1956134966
1.1971482568
1.2101796842
1.1867057813
1.2042085601
1.1891221511
1.2013644290
1.1972502797
1.1935594305
1.1833438187
1.1997487862
1.2145344073
1.2091381560
1.2076685006
1.1985560317
1.2086703450
1.1862861027
1.1845133716
1.1842398047
1.1881641713
1.2061578212
1.1924343574
1.2027117935
1.1921745763
1.1964918948
1.1827119610
1.2131203784
1.2086937354
1.2022406263
1.2056697637
1.1832036054
1.1901776318
1.2056890393
1.1875051378
1.1858322901
1.2006488097
1.2033940817
1.1983242866
1.2027760887
1.1946294554
1.2159134938
1.1971393450
1.1909238613
1.2061556139
1.1999620273
1.1889535282
1.2042107049
1.1942368487
1.2145352785
1.1883128347
1.1937737463
1.2136912360
1.2037717296
1.1999634224
1.1919399538
1.1924673540
1.1849918336
1.2066219652
1.1863242000
1.2047092199
1.1904391842
1.1952604388
1.1996975707
1.1878193585
1.2071625028
1.1898867378
1.2095168680
1.2101807611
1.1970968498
1.2131210392
1.2056719695
1.2159146198
1.1952608439
1.1985570899
1.1977335100
1.1999454421
1.2150207107
1.1988370238
1.2051837381
1.2070511121
1.2013660910
1.1983064234
1.2006961978
1.1840096544
1.1993625679
1.2080725397
1.1955973338
1.2123309345
1.1947330954
1.1983634925
1.2017904222
1.1860080541
1.1847398242
1.2010356026
1.2034558027
1.1852889515
1.2086719445
1.1963855444
1.1885704441
1.2027780115
1.1928415822
1.1897879428
1.1857010518
1.2023904472
1.1911346917
1.1868100770
1.1900534835
1.1948203114
1.2119060977
1.1964098190
1.1931569642
1.1889535558
1.1998962655
1.2036206461
1.1906658065
1.1875050510
1.2028493776
1.1920260579
1.2077487035
1.1862565855
1.1895888008
1.1938698805
1.1956656665
1.1858589413
1.1966831885
1.2016326977
1.1961909901
1.1959875471
1.1956712409
1.1987020939
1.2132365135
1.1829553356
1.1988861939
1.1962296220
1.2011020386
1.1836896006
1.2049576574
1.1917626041
1.1973071210
1.1972930173
1.1843604137
1.1876494052
1.1959207644
1.1974102901
1.2091558218
1.1851975873
1.1957798642
1.1931571153
1.2063410448
1.1896523668
1.2095184354
1.2023922023
1.1996989813
1.2066239784
1.1839786617
1.1937959085
1.2105447296
1.2136926193
1.2023380279
1.1907815035
1.1836028615
1.2123322058
1.1951273300
1.1972933554
1.1924404204
1.1960688716
1.1983645898
1.2037736415
1.2010372016
1.2080743885
1.1855741033
1.1828628451
1.1872580963
1.1908527979
1.2150221776
1.1971215431
1.1970480507
1.1992051452
1.1829286657
1.1861642687
1.1955975935
1.1974088026
1.1836881905
1.1867338810
1.2026252385
1.2109860441
1.2066073676
1.1834297181
1.2003253113
1.1980759166
1.2051857293
1.1867317572
1.2038619051
1.2123590658
1.2080805530
1.1884454141
1.1845187194
1.1823306942
1.1879558330
1.1889372948
1.2014558850
1.2095550018
1.2051894922
1.1823868259
1.1819761784
1.1970973935
1.1967270883
1.1972778312
1.1939063341
1.1854503137
1.1925309782
1.1941356622
1.1812731970
1.1821325122
1.1986893101
1.1982535282
1.1847142872
1.1975169171
1.1964905220
1.1897052766
1.1832493538
1.1816782352
1.1824046513
1.1975843800
1.1977550576
1.1885613330
1.1925045065
1.1936827210
1.1836799085
1.1826925595
1.1861214006
1.1848346602
1.1830914963
1.1819057381
1.1811671893
1.1914167235
1.1828633536
1.1841376369
1.1959229603
1.1809462385
1.1993637461
1.1820048433
1.2010082357
1.1998492524
1.1810407154
1.1957820186
1.1814601042
1.1815853438
1.2034581103
1.1820317491
1.2031194792
1.2043027674
1.1827687182
1.1822373300
1.2078162598
1.2129691981
1.2128100832
1.2128201745
1.2129809271
1.2136139184
1.2129231463
1.2150101851
1.2146153475
1.2118686935
1.2124169960
1.2115246683
1.2118782230
1.2137910852
1.2147212693
1.2130389301
1.2161466761
1.2146222779
1.2136191301
1.2153126038
1.2160386966
1.2143352011
1.2121498861
1.2137296835
1.2164642973
1.2153282993
1.2130645060
1.2150886338
1.2158857171
1.2146017859
1.2167088001
1.2146149579
1.2143577158
1.2114666385
1.2141232104
1.2128137111
1.2161515768
1.2161238512
1.2153197192
1.2122493540
1.2134466582
1.2119236636
1.2124247532
1.2104504776
1.2067896638
1.2138960691
1.2150995046
1.2117795165
1.2061274498
1.2130673996
1.2153333052
1.2108207808
1.2159074404
1.2154729790
1.2114698071
1.2119378401
1.2052533503
1.2136099963
1.2095258568
1.2146233729
1.2113906526
1.2128282443
1.2128060943
1.2054967143
1.2059398245
1.2141289183
1.2095672036
1.2103947293
1.2108950207
1.2066298632
1.2106697705
1.2109941133
1.2077278734
1.2077827588
1.2116570152
1.2081819986
1.2164835418
1.2068029645
1.2065437068
1.2071964351
1.2124345031
1.2098668965
1.2052520234
1.1942870315
1.1961404046
1.2128184672
1.2095278496
1.2084601504
1.2055060220
1.2097916917
1.2086969237
1.2108799991
1.2059465847
1.2070828558
1.1948954440
1.1963211910
1.2055521116
1.2094240340
1.2087050651
1.2065462629
1.2041212180
1.2033616927
1.2099358391
1.2007667601
1.2030566929
1.2073851728
1.2097184576
1.2024685867
1.2078074958
1.2086951305
1.2081833651
1.2002387876
1.2071960815
1.2066173543
1.2032662672
1.2021619969
1.2005872968
1.2016026812
1.2077975373
1.2098076135
1.2013341783
1.2082962606
1.2164875357
1.2025864369
1.2084627454
1.2059461124
1.2042869327
1.2055590504
1.1975349893
1.2050659251
1.1955963825
1.1940596473
1.2088496510
1.1961312755
1.2077644098
1.2033243257
1.1976134627
1.2043835785
1.1942754438
1.1954213964
1.2001842755
1.2013885773
1.2098224145
1.1990422362
1.2005810123
1.2023943218
1.2038372344
1.2030541996
1.2049567224
1.2087110663
1.2041191228
1.2082962126
1.2053013332
1.2075495295
1.2012968843
1.2024665457
1.2002368215
1.2106185547
1.2033105084
1.2013657147
1.2078211566
1.2020145949
1.2033588998
1.2028349159
1.2040874154
1.2035415391
1.2087103890
1.1988681808
1.1975278474
1.2048750918
1.2050969845
1.2043840487
1.2067994556
1.2050646555
1.1978797336
1.1967434592
1.1979117741
1.1987909677
1.2044201810
1.1908915406
1.1966699240
1.2059802092
1.2058148245
1.1990043895
1.2032023571
1.2042919052
1.1955851827
1.1967283369
1.1977346218
1.2042969046
1.1897138359
1.2033121663
1.2001743451
1.1921746653
1.1990397177
1.2013615028
1.1972293882
1.2053004314
1.2040973880
1.1936855844
1.2038346807
1.2000066849
1.2087238615
1.1957636498
1.2049659174
1.1934760287
1.2021981041
1.2012938413
1.1979079676
1.1897139955
1.2021269177
1.1990025918
1.2031943581
1.1998757631
1.1993179019
1.2059793050
1.2174598791
1.2042905366
1.1987876603
1.2059650494
1.2050680075
1.1968251378
1.1899231015
1.1978397389
1.2010424885
1.2046156692
1.1967350510
1.2180236328
1.1986940103
1.2068109008
1.1957601293
1.2010988124
1.1947307297
1.2171896503
1.1926693627
1.1976857493
1.1952041713
1.1991266218
1.2022050812
1.1923849953
1.1918808845
1.1911115433
1.1960381866
1.1934087004
1.2037073519
1.1967966539
1.1997531546
1.1936717137
1.1914396850
1.2010761935
1.1912598121
1.1949277672
1.2021258239
1.2174614531
1.1993099854
1.1946494464
1.2178919667
1.1939281395
1.1983554885
1.2179847486
1.1999583560
1.2021520412
1.1958149247
1.2189312989
1.1970431914
1.2171905738
1.1918798864
1.1954839369
1.1929041517
1.2164406638
1.2037061343
1.1951988403
1.1998341046
1.2191515667
1.1947188405
1.1926695509
1.2201579829
1.1918842618
1.1976798487
1.1947792110
1.1934029813
1.2011509180
1.2187758536
1.2030841836
1.1961127017
1.1899633125
1.1912580647
1.1946404753
1.2179506540
1.1916652891
1.1915311302
1.1956933805
1.1984973686
1.1949156054
1.1906111567
1.2177644577
1.1947008383
1.1931366904
1.2173979114
1.2171314245
1.1901425928
1.1966693543
1.2164417310
1.2201595816
1.2144450068
1.2193342644
1.1970345727
1.1888076665
1.2187777113
1.2201942061
1.1882710999
1.1972934886
1.1958063016
1.2196838448
1.1926919044
1.2128544497
1.2188826199
1.2021684867
1.1937337215
1.2175719013
1.2156758020
1.1935991754
1.1891095091
1.2198870129
1.1883473383
1.1956913845
1.2166222530
1.1915391520
1.1896740916
1.1976175898
1.1915276911
1.1909287283
1.1909635364
1.1884157623
1.2169806612
1.2181447308
1.1956242633
1.2174007942
1.1961049086
1.2179498443
1.1899632916
1.2030912900
1.1946990031
1.1896923599
1.1934796217
1.1916650167
1.1891853360
1.2189070711
1.1880946677
1.2212902510
1.1988708214
1.2188840570
1.2201953040
1.1902492860
1.1889969123
1.1881776679
1.2121926257
1.1888434824
1.2151918224
1.2201791517
1.1882737829
1.2175744747
1.1972901785
1.2207701946
1.2200430318
1.1904469661
1.1935980409
1.2111690801
1.1944526175
1.2137806832
1.1888094627
1.2209111801
1.2212914650
1.1902749266
1.1888321781
1.2181437844
1.1990451575
1.1896754921
1.2183896640
1.2169831025
1.1976155095
1.2217406838
1.1909293724
1.1880116390
1.2187834772
1.1934782326
1.2086051020
1.2001162705
1.1880778675
1.2104389359
1.2209123796
1.1902499958
1.1887097948
1.2207711533
1.1881791782
1.1944509541
1.1891421684
1.2218317683
1.1889982843
1.1988732001
1.2207165714
1.1878614974
1.1923917687
1.2202162619
1.1899955305
1.2067718455
1.1879691976
1.2213550127
1.2001805349
1.1878335901
1.2216645160
1.2228432456
1.2094010769
1.1877642022
1.1990480879
1.2208318177
1.2232868826
1.2183917946
1.2049277677
1.1878274005
1.1879411735
1.2196244232
1.2218332334
1.2207178636
1.2223422818
1.1879723789
1.1891450504
1.2205094919
1.1888907174
1.2075743641
1.1923905385
1.1880118742
1.2001212345
1.2226242722
1.2228777481
1.1881062050
1.2199234052
1.2030513893
1.2057453714
1.1875857451
1.1878351527
1.2231800337
1.1878292178
1.1878406645
1.1876027989
1.2011604412
1.2226388134
1.1880051722
1.2011517099
1.2201003550
1.2131830556
1.2185980524
1.2160494647
1.2039128064
1.2228796761
1.2019813757
1.2217840998
1.2098695168
1.2182620258
1.2196244675
1.2045864736
1.2222094452
1.2223037749
1.1888933819
1.2193138556
1.2215888415
1.2146780343
1.2174698207
1.2028009784
1.2115595821
1.2188498896
1.2063612824
1.2226262930
1.2219974926
1.2205105383
1.1876313996
1.2010003002
1.2020527297
1.1878426816
1.1918661799
1.2081276506
1.1876046790
1.1943304901
1.1992330148
1.1873584977
1.1895437582
1.1884399183
1.1969603982
1.2001404646
1.1906626332
1.1875455797
1.1930983295
1.1981802498
1.1872224037
1.1885749616
1.1878255980
1.1956034392
1.2056317201
1.2118078067
1.2170682856
1.2215161627
1.2085085344
1.2033990573
1.2182615038
1.2019844452
1.2185975646
1.2210468426
1.2009028097
1.2148281315
1.2189538200
1.2217857402
1.2109186233
1.2168952995
1.2141095094
1.2206558398
1.2074236091
1.2133648011
1.2176286217
1.2223058921
1.2101788853
1.2051087346
1.2195383037
1.2038170088
1.2016837295
1.2162390000
1.2206789944
1.2125592248
1.2174688654
1.2155262983
1.2215909810
1.1928748468
1.2068137774
1.1999623418
1.1982934330
1.1961989817
1.1937293344
1.1980651100
1.1885764673
1.1877527232
1.1870360005
1.2001703494
1.1873220015
1.1881029388
1.1913225092
1.1891200071
1.2091929970
1.1876344637
1.1904555900
1.1953783574
1.1941008609
1.1991394497
1.1973120241
1.1949767457
1.1925127817
1.1991952134
1.1893664560
1.1884424525
1.1868752027
1.2010014657
1.1873602145
1.1874938058
1.1901770660
1.1882062668
1.1916455824
1.1967527311
1.2103301957
1.2157352865
1.2196035101
1.2210483248
1.2176336850
1.2128088256
1.2044207025
1.1998422080
1.2134086861
1.2009036656
1.2156999925
1.2070959037
1.2022116710
1.2095795586
1.2170672518
1.2118994891
1.2162679352
1.2206810341
1.2195501998
1.2143040342
1.2061624003
1.2005860930
1.2148598248
1.2026656163
1.2162376415
1.2087218689
1.2038372243
1.2112255161
1.2183878297
1.1973745446
1.1947870058
1.1954130093
1.1870061583
1.1991891535
1.1886608501
1.1923032956
1.2054654562
1.1899890674
1.1882057254
1.1877183778
1.1866776123
1.1989573917
1.2078852792
1.1930974779
1.1972331448
1.1907625261
1.1874556163
1.1964516779
1.1960562512
1.1942800684
1.1870751395
1.1999616145
1.1877953908
1.1935280272
1.1911164363
1.1889668824
1.1871190781
1.1865075418
1.1981683431
1.1919143175
1.1982786809
1.1896656213
1.1881036427
1.1857767310
1.1931565413
1.1988247840
1.1889924933
1.2113796775
1.2157342212
1.1853991191
1.1858189677
1.2056532655
1.1933632940
1.2010560268
1.2081738363
1.1892743198
1.1871159075
1.1850479200
1.2183614750
1.2031897922
1.1998419761
1.2118471310
1.2087733485
1.2143484503
1.1949312999
1.1950453888
1.1911015339
1.2161552772
1.1913774970
1.1873198340
1.2142581997
1.1863401591
1.1940382784
1.1995352978
1.1898939889
1.2129027042
1.2170794308
1.1852539962
1.1852687263
1.2072105287
1.1923988675
1.2025783725
1.2097969543
1.1883961199
1.1878921116
1.1849933032
1.2195520469
1.2048609331
1.2015158047
1.2133258524
1.2103255909
1.2148586961
1.1957051755
1.1942920908
1.1920358724
1.2182119166
1.1903255730
1.1864937506
1.2147607925
1.2009803952
1.1862858520
1.1980082644
1.1917269462
1.1967711506
1.1872944620
1.1924356736
1.1871070120
1.2091360601
1.2082341363
1.2045687215
1.1881709791
1.2027099621
1.1984076789
1.1964937297
1.1877929564
1.1982330161
1.1988812400
1.1894979688
1.1967853192
1.1866613262
1.2041091990
1.1901852730
1.2065246112
1.1963968752
1.1941277176
1.1999234769
1.1946298504
1.2006470524
1.1861183189
1.1972513432
1.1929185529
1.1962289855
1.1867064298
1.1912982643
1.1877170077
1.2104992647
1.2095483284
1.2040355331
1.1873481463
1.2027502426
1.1980271166
1.1956148945
1.1885294423
1.1989564936
1.1988849980
1.1905769258
1.1971474190
1.1867431306
1.1891308096
1.1973767024
1.1953055322
1.1997473243
1.1935593676
1.1949223674
1.1861863599
1.1894499987
1.1868342825
1.1937732865
1.1933634102
1.1919397007
1.1902419463
1.2098551015
1.1858248019
1.1881215969
1.1875678609
1.1858262453
1.1941174555
1.2067203308
1.1888534708
1.1947823066
1.1950459315
1.1930689880
1.1963751641
1.1922986000
1.2128446961
1.1870375183
1.1850466007
1.1916248243
1.1860093136
1.1888563330
1.1878201608
1.1859678258
1.2169479644
1.1964712776
1.1873177644
1.2019721407
1.1956686353
1.1950475457
1.1840111463
1.1847412051
1.1930682061
1.1898869933
1.1843920618
1.1892731256
1.1858171747
1.1847283260
1.2142577209
1.1988247610
1.1913771430
1.1909652092
1.1849073237
1.1940891407
1.1853795443
1.1884533486
1.1874310611
1.1862906275
1.1945107521
1.1942509062
1.1927767315
1.1891758148
1.2113763555
1.1853977532
1.1872846398
1.1868682529
1.1933910479
1.2082975700
1.1880031902
1.1937904297
1.1957370069
1.1957363501
1.1912911471
1.2133255500
1.1863578433
1.1853270187
1.1905195274
1.1867448284
1.1886763196
1.1858884561
1.2182135552
1.1956814655
1.1915076521
1.1882578892
1.2035517417
1.1963758092
1.1839803715
1.1852760089
1.1921510625
1.1907723387
1.1842669803
1.1903246142
1.1864916813
1.1842098224
1.2156251210
1.2003972267
1.1923984583
1.1900352071
1.2082603056
1.1862891404
1.1851979797
1.1836907673
1.1873447936
1.2051357086
1.2076704119
1.1911302799
1.2027520565
1.1911345071
1.1927275482
1.1955734595
1.1973395477
1.1829566005
1.2126498447
1.2082360651
1.2112236654
1.1867171907
1.2007175876
1.2052420884
1.1836889758
1.1889842174
1.2054327307
1.1883406038
1.1849640961
1.2009820487
1.2047039169
1.1978425696
1.1978436456
1.2022644956
1.1973208172
1.1934316294
1.1834776436
1.2002316821
1.1976141877
1.2153829029
1.2100728840
1.1964095554
1.1917274009
1.2068487983
1.2040910680
1.1993365942
1.2072838743
1.1878619442
1.2097570633
1.1863730737
1.1843610469
1.1841925197
1.1880607180
1.2073231538
1.1922799539
1.2040374085
1.1919447296
1.1965048649
1.1976150783
1.1829302105
1.2140352109
1.2095503756
1.2116673910
1.1872918504
1.2016308039
1.2067502470
1.1832132147
1.1900203692
1.2068509068
1.1872239622
1.1856636634
1.2012049399
1.2045705777
1.1980281827
1.2020927039
1.2037456738
1.1980082585
1.1945416215
1.1832206270
1.1999249430
1.2166916957
1.2105011493
1.2059283739
1.1978767841
1.1906183674
1.2087098140
1.2054305126
1.2007966073
1.1887089475
1.1966377326
1.2126502638
1.2052442765
1.1941178020
1.2153838031
1.1881211719
1.1945659797
1.1978773845
1.1976751277
1.1936860170
1.1988012975
1.2127970931
1.1982422613
1.1848032913
1.2027955919
1.1917991917
1.2064439363
1.2007981491
1.1980387971
1.1917993023
1.1920348267
1.1922989517
1.2009093983
1.1870406339
1.1852524732
1.1942365569
1.1957057200
1.1848018467
1.1993445368
1.2055137057
1.1861855584
1.1878887979
1.1949943560
1.2053894351
1.1949223873
1.2109390899
1.1902420468
1.1904687767
1.1952413123
1.1955062416
1.1858311985
1.1970235252
1.2005854929
1.1855247954
1.1847527339
1.1942923151
1.1876716578
1.1838642522
1.1989582277
1.2034125864
1.1876707103
1.1859326555
1.2082620811
1.1967826025
1.1897208957
1.2084288617
1.2112243202
1.1865618425
1.1969110452
1.2140356974
1.2067523570
1.1949042665
1.2166931002
1.1891754952
1.1952417855
1.1904389911
1.1993377301
1.1974139015
1.1928937654
1.1991389336
1.2141814158
1.1982526211
1.2041284294
1.2063334377
1.2022663608
1.1978522911
1.1934401782
1.1909299411
1.1932458421
1.1998472128
1.1847717610
1.1863248538
1.1843905100
1.1986545086
1.2069527243
1.1871121248
1.1956582963
1.2056924600
1.2113744026
1.1912912423
1.1838656847
1.1949039598
1.1949050145
1.1976768616
1.2010066735
1.1853783838
1.1842631704
1.2002289630
1.2028567730
1.1868634952
1.1847270744
1.2097582783
1.1963270645
1.1888388674
1.2099126464
1.2116681247
1.1884471299
1.2037477632