<VTKFile type="UnstructuredGrid" version="0.1">
	<UnstructuredGrid>
		<Piece NumberOfPoints="1862" NumberOfCells="3498">
			<CellData>
				<DataArray type="Int32" Name="type" NumberOfComponents="1" Format="ascii">
0
0
0
0
0
0
0
0
0
0
0
0
0
0
0
0
1
0
0
1
0
0
0
0
0
0
0
0
0
0
0
0
0
1
0
0
0
0
0
0
0
0
0
0
0
0
0
0
0
0
1
0
0
0
0
0
0
0
0
0
0
1
0
0
0
0
0
0
0
0
0
0
0
0
0
0
0
0
0
0
0
0
0
0
0
0
0
0
0
0
0
0
0
0
0
0
0
0
0
0
0
0
0
0
0
0
0
0
0
0
0
0
0
0
0
0
0
0
0
0
0
0
0
1
0
0
0
0
0
0
0
0
0
0
0
0
0
0
0
0
0
0
0
0
0
0
0
0
0
0
0
1
0
1
1
0
0
0
0
0
0
0
0
0
0
0
0
0
1
0
1
0
0
0
0
1
0
0
0
0
0
0
0
0
1
1
0
0
0
0
0
1
0
0
0
0
0
0
0
0
1
0
0
0
0
0
0
0
0
0
0
0
0
0
0
0
0
0
0
0
0
0
0
0
0
0
0
0
0
0
0
0
0
1
0
0
0
0
0
0
0
0
0
0
0
0
0
0
0
0
0
0
0
0
0
0
0
0
0
0
0
0
0
0
0
0
0
0
0
0
0
0
0
0
0
0
0
0
0
0
0
1
0
0
0
0
0
0
0
0
0
0
0
0
0
0
0
0
0
0
0
0
0
0
0
0
0
0
0
0
0
0
0
0
0
0
0
0
0
0
0
0
0
0
0
0
0
0
0
0
0
0
1
0
0
0
0
0
0
0
0
0
0
0
0
0
0
0
0
0
0
0
0
0
0
0
0
0
0
0
0
0
0
0
0
0
0
0
0
0
0
0
0
0
0
0
0
0
0
0
0
0
0
0
0
0
0
0
0
0
1
0
0
0
0
0
0
0
0
0
0
0
0
0
0
0
0
0
0
0
0
0
0
0
0
0
0
0
0
0
0
0
0
0
0
0
0
0
0
0
0
0
0
0
0
0
0
0
0
0
0
0
0
0
0
0
0
0
0
0
0
0
0
0
0
0
0
0
0
0
0
0
0
0
0
0
0
0
0
0
0
0
0
0
0
0
0
0
0
0
0
0
0
0
0
0
0
0
0
0
0
0
0
0
0
0
0
0
0
0
0
0
0
0
0
0
0
0
0
0
0
0
0
0
0
0
0
0
0
0
0
0
0
1
0
0
0
0
0
0
0
0
0
0
0
0
0
0
0
0
0
0
0
1
0
0
0
0
0
0
0
0
0
0
0
0
0
0
0
0
0
0
0
0
0
0
0
0
0
0
0
0
0
0
0
0
0
0
0
0
0
0
0
0
0
0
0
0
0
0
0
0
0
0
0
0
0
1
0
0
0
0
0
0
0
0
0
0
0
0
0
0
0
0
0
0
0
0
0
0
0
1
0
0
0
0
0
0
0
0
0
0
0
0
0
0
0
0
0
0
0
1
0
0
0
1
0
0
0
0
0
0
0
0
0
0
0
0
0
0
0
0
0
0
0
0
0
0
0
0
0
1
0
0
0
0
0
0
0
1
0
0
0
0
0
0
0
0
0
0
0
0
0
0
0
0
0
0
0
0
0
0
0
0
0
0
1
0
0
0
0
0
0
0
1
0
0
0
0
0
0
1
0
0
0
0
0
0
0
0
0
0
0
0
0
0
0
0
0
0
0
0
0
0
0
0
0
0
0
0
0
0
0
0
0
0
0
0
0
0
1
0
0
0
0
0
1
0
0
0
0
0
0
0
1
0
0
0
0
0
0
0
0
0
0
0
0
0
1
0
0
0
0
0
0
0
0
0
0
0
0
0
0
0
0
0
0
0
0
0
0
0
0
0
0
0
0
0
0
0
0
0
0
0
0
0
0
0
0
0
0
0
0
0
0
0
0
0
0
0
0
0
1
0
0
0
0
0
0
0
0
0
0
0
0
0
0
0
0
0
0
0
1
0
0
0
0
0
0
0
0
0
1
0
0
0
0
0
0
0
0
0
0
0
0
0
0
0
0
0
0
0
0
0
0
0
0
0
0
0
0
0
1
0
1
0
0
0
0
0
0
0
0
0
0
0
0
0
0
0
0
0
0
0
0
0
0
0
0
0
0
0
1
0
0
0
1
0
0
0
0
0
0
0
0
0
0
0
0
0
0
0
0
0
0
0
0
0
0
0
0
0
0
0
0
1
0
0
0
0
0
0
0
0
0
0
0
0
0
0
0
0
0
0
0
0
0
0
0
0
0
1
0
0
0
0
0
0
0
0
0
0
0
0
0
0
0
0
0
0
0
0
0
0
0
1
0
0
0
0
0
0
1
0
0
0
0
0
0
0
0
0
0
0
1
0
0
0
0
0
0
0
0
0
0
0
0
0
0
0
0
0
0
0
0
1
0
0
0
0
0
0
0
0
0
0
0
1
0
0
0
0
0
0
0
0
0
0
0
0
0
0
0
0
0
0
0
0
0
1
0
0
0
0
0
0
0
0
0
1
1
0
1
0
1
0
0
0
0
0
0
0
0
0
0
0
1
0
0
0
0
0
1
1
0
0
0
0
0
0
1
0
0
0
0
0
1
1
1
0
0
0
0
0
0
0
0
0
0
0
0
1
1
0
0
1
0
0
0
0
0
1
0
0
0
1
0
1
0
0
0
0
0
0
0
1
0
0
0
0
0
0
0
1
0
0
1
0
0
0
0
0
0
0
0
0
0
0
0
0
0
0
1
0
0
0
0
0
0
0
0
0
0
0
0
0
0
0
0
0
0
0
0
0
0
0
0
0
0
0
0
0
0
0
0
0
0
0
0
1
0
0
0
0
0
0
1
0
0
0
1
0
0
0
0
0
0
0
0
0
0
0
1
0
0
0
0
0
0
0
0
0
0
0
0
0
0
0
0
0
0
0
0
0
0
0
0
0
0
0
0
0
0
0
0
0
0
0
0
0
0
0
0
1
1
0
0
0
0
0
0
0
0
0
0
0
0
0
1
0
0
0
0
0
0
0
0
0
0
0
0
0
0
0
0
0
0
0
0
0
0
0
0
0
0
0
0
0
0
0
0
0
0
0
0
0
0
0
0
0
0
0
0
0
0
0
0
0
0
0
0
0
0
0
0
0
0
0
0
0
0
0
0
0
0
0
0
0
0
0
0
1
1
0
0
0
0
0
0
0
0
1
0
0
0
0
0
0
0
0
0
0
0
0
0
0
0
0
0
0
0
0
0
0
0
1
0
0
0
0
0
0
0
0
0
0
0
0
0
0
0
0
1
0
0
0
0
0
0
0
0
0
0
0
0
0
0
0
0
0
0
0
0
0
0
0
0
0
0
0
0
0
0
0
0
0
0
0
0
0
0
0
0
0
0
0
0
0
0
0
0
0
0
0
0
0
0
0
0
0
0
0
0
0
0
0
0
0
0
0
0
0
0
0
0
0
0
0
0
0
0
0
0
0
0
0
0
0
0
0
0
0
0
1
1
0
0
0
0
0
1
0
0
0
0
0
0
0
0
0
0
0
0
1
0
0
0
0
0
0
0
0
0
0
0
0
0
0
0
0
0
0
0
0
0
0
0
0
0
0
0
0
0
0
0
0
0
0
0
0
0
0
0
0
0
0
0
0
0
0
0
0
0
0
0
0
0
1
0
1
0
0
0
0
0
0
0
0
0
0
0
0
0
0
0
0
0
0
1
0
0
0
0
0
0
0
0
0
0
0
0
0
0
0
0
0
0
0
0
0
0
0
0
0
0
0
0
0
0
0
0
0
0
0
0
0
0
0
0
0
0
0
0
0
0
0
0
0
0
0
0
0
0
0
0
0
0
0
0
0
0
0
0
0
0
0
0
0
0
1
0
0
0
0
0
0
0
0
0
0
1
0
0
0
0
0
0
0
0
0
0
0
0
0
0
0
0
0
0
0
0
0
0
0
0
0
0
0
0
0
0
0
0
0
0
0
0
0
1
0
0
0
0
0
0
0
0
0
0
0
0
0
0
0
0
0
0
0
0
0
0
0
0
0
0
0
0
0
0
0
0
0
0
0
0
0
0
0
0
0
0
0
0
0
0
0
0
0
0
0
0
0
0
0
0
0
0
0
0
0
0
0
0
0
0
0
0
0
0
0
0
0
0
0
0
0
0
0
0
0
1
0
0
0
0
0
0
0
0
0
0
0
0
0
0
0
0
0
0
0
0
0
0
0
0
0
0
0
0
0
0
0
0
0
0
0
0
0
0
0
0
0
0
0
0
0
0
0
0
0
0
0
0
0
0
0
0
0
0
0
0
0
0
0
0
0
0
0
0
0
0
0
0
0
0
0
0
0
0
0
0
0
0
0
0
0
0
0
0
0
0
0
0
0
0
0
0
0
0
0
0
0
0
0
0
0
0
0
0
0
0
0
0
0
0
0
0
0
0
0
0
0
0
0
1
0
0
0
0
0
0
0
0
0
0
0
0
0
0
0
0
0
0
0
0
0
0
0
0
0
0
0
0
0
0
0
0
0
0
0
0
0
0
0
0
0
0
0
0
0
0
0
0
0
0
0
0
0
0
0
0
0
0
0
0
0
0
0
0
0
0
0
0
0
0
0
0
0
0
0
0
0
0
0
0
0
1
0
0
0
0
0
0
0
1
0
0
0
0
0
0
0
0
0
0
0
0
0
0
0
0
0
0
0
0
0
0
0
0
0
0
0
0
0
0
0
0
0
0
0
0
0
1
0
0
0
0
0
0
0
0
0
0
0
0
0
0
0
0
0
0
0
0
0
1
0
0
0
0
0
0
0
0
0
0
0
0
1
1
0
0
0
0
0
0
0
0
0
0
0
0
0
0
0
1
1
0
1
0
0
0
0
0
0
0
0
0
1
0
0
0
0
0
0
1
0
0
0
0
0
0
0
0
0
0
1
0
0
0
0
1
0
1
0
0
0
0
0
0
0
1
0
0
0
1
0
0
0
1
0
1
1
0
0
1
1
0
0
0
1
0
0
0
1
0
0
0
0
0
0
0
0
0
1
0
0
0
0
0
0
1
0
0
0
0
0
0
0
0
0
0
0
0
0
0
0
0
0
0
0
0
0
0
0
0
0
0
0
1
0
0
1
0
0
0
0
0
0
0
0
0
0
0
0
0
0
0
0
0
0
1
0
0
1
0
0
0
0
0
0
0
0
0
0
0
1
0
0
1
0
0
0
0
0
0
0
0
0
0
0
1
1
0
0
0
0
0
0
0
0
0
0
0
0
1
0
0
0
0
0
0
0
0
0
0
0
0
0
0
0
0
0
1
0
0
0
0
0
0
0
0
0
0
0
0
0
0
0
0
0
1
0
0
0
0
0
0
0
0
0
0
0
0
0
0
0
0
0
0
0
0
0
0
0
0
0
0
0
0
0
0
0
0
0
0
0
0
0
0
0
0
1
0
0
0
0
0
0
0
0
0
0
0
0
0
0
0
0
0
0
0
0
0
0
0
0
0
0
0
0
0
0
0
0
0
0
0
0
0
0
0
0
0
0
0
0
0
1
0
0
0
0
0
0
0
0
0
0
0
0
0
0
0
0
0
0
0
0
0
0
0
0
0
0
0
0
0
0
0
0
0
0
0
0
0
0
0
0
0
0
0
0
0
0
0
1
0
0
0
0
0
0
0
0
0
0
1
0
0
0
0
0
0
0
0
0
0
0
0
0
0
0
1
0
0
1
0
0
0
0
0
0
0
0
0
0
0
0
0
0
0
0
0
0
0
0
0
0
0
1
0
0
0
0
0
0
0
0
0
0
0
0
0
0
0
0
0
0
0
0
0
0
0
0
0
0
0
0
0
0
0
0
0
0
0
1
0
0
0
0
0
0
0
0
0
0
0
0
0
0
0
0
0
0
0
0
0
0
0
0
0
0
0
0
0
0
0
0
0
0
0
0
0
0
0
0
0
0
0
0
0
0
0
0
0
0
0
0
0
0
0
0
0
0
0
0
0
0
0
0
0
0
0
0
0
0
0
0
0
0
0
0
1
0
0
0
0
0
0
0
0
0
0
0
0
0
0
0
0
0
0
0
0
0
0
0
0
0
0
0
0
0
0
0
0
0
0
0
0
0
0
0
1
0
0
0
0
0
0
0
0
0
0
0
0
1
1
0
0
0
0
0
0
0
0
0
0
0
0
0
0
0
0
0
0
0
0
0
0
0
0
0
0
0
0
0
0
0
0
0
0
0
0
0
0
0
0
0
0
0
0
0
0
0
0
0
0
0
0
0
0
0
0
0
0
0
0
0
0
0
0
0
0
0
0
0
0
0
0
0
0
0
0
0
0
0
0
0
0
0
0
0
0
0
0
0
0
0
0
0
0
0
0
0
0
0
0
0
1
0
1
0
0
0
0
0
0
0
1
1
1
1
0
0
0
0
0
0
0
0
0
0
0
0
0
0
0
0
0
0
0
0
0
0
0
0
0
0
0
0
1
1
0
0
0
0
0
0
0
0
0
0
0
0
0
0
0
0
0
0
1
0
0
0
0
0
0
0
1
1
0
1
1
0
0
1
0
0
0
0
0
0
0
1
0
1
0
0
0
0
0
0
0
0
0
0
0
0
0
0
0
0
0
0
0
0
0
0
0
0
0
0
0
1
1
0
0
0
1
1
0
0
0
0
1
0
0
1
0
1
0
0
0
0
0
1
0
0
0
1
0
0
0
0
0
0
0
0
0
0
0
0
0
0
0
0
0
0
0
0
0
0
0
0
0
0
0
1
0
0
0
0
0
0
1
0
0
0
0
0
0
0
0
0
0
0
0
0
0
0
0
0
0
0
0
0
0
0
0
0
0
0
0
0
1
0
1
0
0
0
0
0
0
0
1
0
0
0
0
0
0
0
0
0
0
0
1
0
0
0
0
0
0
0
0
0
1
0
0
0
0
0
0
0
1
0
0
0
0
0
0
0
1
0
0
0
0
0
0
0
0
0
0
0
0
0
0
0
0
0
0
0
1
0
1
0
0
0
0
0
1
0
0
0
0
0
0
0
0
0
0
0
0
0
0
0
0
0
0
0
0
0
0
0
0
0
1
0
1
0
0
0
0
0
0
0
0
0
1
0
0
0
0
0
1
0
0
0
0
0
0
0
0
0
0
0
0
0
0
0
1
0
0
0
0
0
0
0
0
1
0
0
0
0
0
0
0
0
0
0
0
0
0
0
0
0
0
0
0
0
0
0
0
0
0
0
0
0
0
0
1
0
0
0
0
0
0
0
0
0
0
0
0
0
0
0
0
1
0
0
0
0
0
0
0
0
1
0
0
0
0
0
0
0
0
0
1
0
0
0
0
0
1
0
0
0
0
0
0
0
0
0
0
0
0
0
0
0
0
0
0
0
1
0
0
0
0
0
0
1
0
0
0
0
0
0
0
0
1
0
0
0
0
0
0
0
0
0
0
0
0
0
0
1
0
0
1
0
0
0
1
0
0
0
0
0
0
0
0
0
0
0
0
0
0
0
0
1
0
0
0
0
0
0
0
0
0
0
1
0
1
0
0
0
0
0
0
1
0
0
0
0
0
0
0
0
0
0
0
0
0
0
0
0
0
0
0
0
0
0
0
0
0
0
0
1
1
0
0
0
0
0
0
1
0
0
0
0
0
0
0
0
0
0
0
0
0
1
0
0
0
0
0
0
0
1
0
0
0
0
0
0
0
0
0
0
0
0
0
0
0
0
0
0
0
0
0
0
0
0
0
0
0
1
0
0
0
0
0
0
0
0
0
0
1
0
0
1
0
0
0
0
0
0
0
0
0
0
0
0
0
0
0
0
0
0
0
0
0
0
0
0
0
0
0
0
0
1
0
0
0
0
0
0
0
1
0
0
0
0
0
0
0
1
0
0
0
0
1
0
0
0
0
0
0
0
0
0
0
0
1
0
1
0
0
0
1
0
				</DataArray>
				<DataArray type="Float64" Name="h" NumberOfComponents="1" Format="ascii">
1.1784968668
1.1785182065
1.1710167716
1.1752797208
1.1711314092
1.1725643590
1.1735918535
1.1793540348
1.1758745530
1.1839790445
1.1775042868
1.1725638766
1.1816658733
1.1791726353
1.1801301332
1.1865333685
1.1733609165
1.1838291473
1.1799567284
1.1768544202
1.1693054164
1.1822955517
1.1766339194
1.1695488257
1.1752519916
1.1888928056
1.1804969497
1.1713810649
1.1731247757
1.1811762739
1.1787931338
1.1752877238
1.1835673223
1.1708084005
1.1650935520
1.1698473930
1.1670589677
1.1772307031
1.1725279176
1.1686214487
1.1717949116
1.1689556236
1.1792208957
1.1738425836
1.1686784315
1.1714428936
1.1757907033
1.1652050751
1.1675685496
1.1687217676
1.1683913324
1.1706869801
1.1725211493
1.1667420621
1.1679376737
1.1794658016
1.1704406517
1.1635525087
1.1641079335
1.1654683834
1.1623905702
1.1628285247
1.1662522744
1.1694593922
1.1731609559
1.1700050217
1.1698163672
1.1674923038
1.1629040124
1.1633471812
1.1632698210
1.1670608934
1.1777888305
1.1661345742
1.1647306717
1.1733982260
1.1639027811
1.1630847388
1.1637102031
1.1727270121
1.1617941149
1.1692901297
1.1677626880
1.1687256164
1.1742643661
1.1721867232
1.1619704352
1.1698824016
1.1640004269
1.1692653309
1.1628372611
1.1727000190
1.1623062301
1.1705616429
1.1707963803
1.1712456888
1.1715764605
1.1736644682
1.1716803013
1.1622123828
1.1678206893
1.1621744390
1.1693900254
1.1642377336
1.1890207424
1.1709494625
1.1724298158
1.1676056233
1.1637713441
1.1697844214
1.1703512032
1.1691964728
1.1632893474
1.1640732809
1.1679351847
1.1621553216
1.1684470352
1.1859692516
1.1638564484
1.1665980200
1.1872873587
1.1705053636
1.1733258314
1.1880119965
1.1644426726
1.1663359744
1.1669708871
1.1901312297
1.1614372252
1.1630278581
1.1623361541
1.1714676476
1.1656642199
1.1610057718
1.1849816257
1.1631631628
1.1917109907
1.1611513938
1.1617828917
1.1862946217
1.1924564941
1.1861005335
1.1616055905
1.1833696637
1.1725801890
1.1619578192
1.1892695117
1.1623604832
1.1883584680
1.1611678510
1.1926260266
1.1606316767
1.1606150837
1.1595698042
1.1617959435
1.1617572316
1.1603396397
1.1907833749
1.1605777044
1.1941867617
1.1849898716
1.1616813502
1.1904059096
1.1927715723
1.1910476220
1.1634777964
1.1805126921
1.1879592947
1.1905387444
1.1610775026
1.1604262762
1.1927898409
1.1598720095
1.1922614100
1.1794534377
1.1594070083
1.1820978974
1.1644161443
1.1597406754
1.1939799800
1.1627649727
1.1772938373
1.1952142336
1.1739634311
1.1940622278
1.1930918595
1.1780726974
1.1599382862
1.1913430961
1.1927342684
1.1757063217
1.1598606685
1.1952192625
1.1761570087
1.1595118847
1.1647147893
1.1950223158
1.1747878375
1.1747960351
1.1611268478
1.1927353901
1.1740051689
1.1930664408
1.1602562307
1.1746707859
1.1981997778
1.1887160635
1.1936472527
1.1742415508
1.1828291163
1.1761836785
1.1939405966
1.1963633406
1.1993189609
1.1914163983
1.1752060555
1.1857501156
1.1971681025
1.1778805954
1.1969319082
1.1745357784
1.1723111143
1.1801375464
1.1739919319
1.1750612300
1.1640760452
1.1695240523
1.1745003351
1.1753808642
1.1710486779
1.1617250318
1.1732905831
1.1747625202
1.1622480589
1.1659495945
1.1743611837
1.1758473877
1.1876161171
1.1976286929
1.1817709976
1.1760273019
1.1931643943
1.1988613344
1.1814451588
1.1925214345
1.1871769849
1.1983500673
1.1771006372
1.1905543783
1.1973717467
1.1846133912
1.1773110078
1.1968196134
1.1753562370
1.1755488596
1.2001913384
1.1842259145
1.1900384579
1.1993059343
1.1745483727
1.1792781840
1.1768536177
1.1768584882
1.1767384262
1.1754313921
1.1675742867
1.1672076155
1.1757928091
1.1633611330
1.1756118058
1.1731082879
1.1790127169
1.1726163819
1.1749494702
1.1749832741
1.1768266714
1.1768708809
1.1768119250
1.1763499366
1.1756174769
1.1711878140
1.1649361028
1.1655218900
1.1693796116
1.1745306312
1.1737406745
1.1751846259
1.1857988415
1.1986250100
1.1987442212
1.1858216318
1.1758985974
1.1918059403
1.1916700113
1.1801706832
1.1757933806
1.1803166326
1.1888701406
1.1967875372
1.2001794411
1.2001932365
1.1888173348
1.1766714270
1.1759120984
1.1759240323
1.1828286490
1.1765097762
1.1829205391
1.1966263043
1.1786775712
1.1775411764
1.1792629988
1.1664772977
1.1771147368
1.1769019847
1.1774648437
1.1780061555
1.1760972438
1.1709649235
1.1781814381
1.1795588071
1.1774133584
1.1789884609
1.1712473915
1.1789924942
1.1774992039
1.1794598638
1.1689892801
1.1775811671
1.1769751581
1.1748394035
1.1732707307
1.1684138864
1.1783266989
1.1794472219
1.1772838117
1.1781438981
1.1837870322
1.1841308583
1.1781135000
1.1756083630
1.1787602351
1.1980723161
1.1759446226
1.1894815957
1.1832263481
1.1898767810
1.1977201557
1.1891192111
1.1857382709
1.1763945691
1.1893986471
1.1868000082
1.1955988418
1.1902482990
1.1804224196
1.1889885930
1.1756287193
1.1810470597
1.1919941939
1.1900293275
1.1885738299
1.2001826734
1.1761223551
1.1765517504
1.1863232581
1.1834383695
1.1862238941
1.1877975280
1.1992594018
1.1912223646
1.1932187654
1.1952664742
1.1751603827
1.1804552961
1.1824475701
1.1752692267
1.1817900298
1.1807904879
1.1805446236
1.1785345022
1.1796404502
1.1703054452
1.1764778137
1.1823750817
1.1770800574
1.1794531347
1.1801500866
1.1816722314
1.1690395182
1.1725006814
1.1799028145
1.1803842604
1.1819233469
1.1774547503
1.1825646374
1.1751044147
1.1687082193
1.1678500721
1.1760775287
1.1811349167
1.1786155458
1.1733109928
1.1802415899
1.1789903263
1.1729758966
1.1817966747
1.1790248317
1.1798323259
1.1708876008
1.1821250364
1.1846262051
1.1867602465
1.1877542694
1.1810972067
1.1879405667
1.1861760355
1.1769095943
1.1898690976
1.1836444812
1.1850987009
1.1821252681
1.1871369008
1.1898005346
1.1905442097
1.1860021800
1.1817426602
1.1965527965
1.1931902176
1.1760856997
1.1868036552
1.1928172561
1.1921263464
1.1928247019
1.1901591154
1.1886831840
1.1991931961
1.1866732918
1.1837388430
1.1865621704
1.1895747970
1.1956112720
1.1839748532
1.1973602452
1.1893272393
1.1786898966
1.1845172086
1.1926894651
1.1865095272
1.1960980089
1.1946320932
1.1792287754
1.1992499311
1.1827194794
1.1755863217
1.1821274448
1.1970941854
1.1962439868
1.1923218509
1.1977515711
1.1935647343
1.1773062709
1.1778919098
1.1746307921
1.1758582517
1.1834995005
1.1853168334
1.1815396067
1.1787778375
1.1834783396
1.1794835682
1.1749649552
1.1831849857
1.1752033200
1.1800717132
1.1827514390
1.2016521950
1.1693065174
1.1939230125
1.1779688626
1.1737076559
1.1782511660
1.1804207922
1.1772904351
1.2037275715
1.2020389531
1.1824229744
1.1706042747
1.1832134590
1.1638805215
1.1922096523
1.1808424238
1.2040309457
1.1904109968
1.1750936155
1.1679813908
1.1760433574
1.2046182057
1.1835202985
1.1660476226
1.2002219632
1.2009558294
1.1668392004
1.1678448966
1.1760775864
1.1746992851
1.1821806535
1.1972635809
1.1805704127
1.1948616262
1.1706149124
1.1764220855
1.1973144507
1.1749613217
1.1876767815
1.1939127696
1.1968610760
1.1881034987
1.1923868286
1.1734546722
1.1764228822
1.1909864446
1.1910923022
1.1863649189
1.1761688862
1.1987019429
1.1535683560
1.1942083541
1.1848863582
1.1759172541
1.1955002674
1.1778860367
1.1935551292
1.1818961659
1.1834702494
1.1777940618
1.1904004884
1.1760382823
1.1972544033
1.1848864918
1.1782530531
1.1743800938
1.1618032231
1.1957126113
1.1673722418
1.1743528016
1.1645928223
1.1752027029
1.1708306345
1.1600151401
1.1967393974
1.1642839238
1.1787537845
1.1837904232
1.1888897065
1.1863630224
1.1780515933
1.1588063940
1.1963655974
1.1956773800
1.1743453724
1.1582254005
1.1962449712
1.1804140963
1.1809424934
1.1866713511
1.1746969219
1.1853151799
1.1967976173
1.1792416842
1.1734815596
1.1940103254
1.1999710414
1.1957202686
1.1836472732
1.1878059860
1.1817258825
1.1903072926
1.1973153806
1.1742796962
1.1712705661
1.1865034294
1.2002228784
1.1401380811
1.1927990014
1.1767730214
1.1837496231
1.1867548125
1.1845183618
1.1493846778
1.1817570133
1.1779973389
1.1651738386
1.1814456981
1.1539846180
1.1827225411
1.1765985886
1.1917947846
1.2033616607
1.1722977044
1.1819180584
1.1724880228
1.2020529906
1.1721405346
1.1859974570
1.1595715225
1.1717655059
1.2032275595
1.1861783272
1.1245976327
1.1677459393
1.1801284250
1.2024632491
1.1434013258
1.1903079528
1.1740311284
1.1973617186
1.1818887353
1.1734794228
1.1759176562
1.1761626803
1.1951592982
1.1887225180
1.1838666972
1.1923777202
1.1714319342
1.1409701712
1.2064559711
1.1888801904
1.1554186519
1.1717644447
1.1468448363
1.1596217345
1.1780528068
1.1734515468
1.1743447659
1.1787472534
1.2037880216
1.2073506651
1.2012423319
1.1951536741
1.1957044694
1.1680039152
1.1754549878
1.1754294055
1.2024997111
1.2014087800
1.1837907069
1.1636011690
1.2036642121
1.1471832110
1.1709081218
1.1847353426
1.1739263703
1.1485970444
1.1732981919
1.1779356256
1.1743470660
1.2020543853
1.1709766587
1.1894142275
1.1767822670
1.1994000966
1.2052624021
1.2079238299
1.2000842770
1.1318877208
1.1717302285
1.1804426617
1.1719616649
1.2069420969
1.2079643623
1.1777932258
1.1638878573
1.1750420128
1.1512930109
1.2042777539
1.1513640367
1.1550865860
1.2114301115
1.2095783762
1.1693374300
1.1659193280
1.2057199940
1.1621683721
1.1595042920
1.1492188405
1.2078605941
1.2103249273
1.2092105353
1.1581038990
1.1542392625
1.1447697374
1.1450832677
1.1502202807
1.2072776377
1.2090374571
1.2028697384
1.2052250890
1.1460602951
1.2105257876
1.2119480947
1.1374341030
1.2073503836
1.2053691599
1.1245991191
1.2129030501
1.1642813934
1.2093258668
1.1537929164
1.1560823423
1.2127843740
1.1434023140
1.2112894683
1.2099484158
1.1582121898
1.2081433672
1.1489389278
1.1323737983
1.2067356025
1.2067867548
1.1700723900
1.1760353422
1.1748412387
1.1748574326
1.1760574543
1.1744316462
1.1725583575
1.1774981744
1.1773494656
1.1725836243
1.1725537809
1.1711403737
1.1726000361
1.1758855724
1.1801177161
1.1735814433
1.1815123412
1.1773600925
1.1744391575
1.1823991803
1.1838243278
1.1752851543
1.1710234346
1.1799320578
1.1811751538
1.1853681465
1.1720801356
1.1793628752
1.1888938674
1.1752489147
1.1839811558
1.1833672134
1.1816823149
1.1700327909
1.1854041979
1.1787596478
1.1815158825
1.1787938312
1.1824110944
1.1708046801
1.1835506003
1.1752589202
1.1823448123
1.1686171912
1.1730214783
1.1733616336
1.1865391645
1.1791915895
1.1725057756
1.1720834458
1.1853745794
1.1717776666
1.1791738189
1.1768524794
1.1700378144
1.1766667033
1.1651362936
1.1823156585
1.1675019512
1.1833839320
1.1693087639
1.1787899967
1.1802360521
1.1699740591
1.1652023682
1.1854130464
1.1686714535
1.1683871574
1.1757549496
1.1714055920
1.1695551080
1.1731496971
1.1704204494
1.1744491612
1.1805194088
1.1662031060
1.1861780385
1.1730416475
1.1680637605
1.1654455414
1.1823623571
1.1724942047
1.1651388895
1.1688159308
1.1663904506
1.1802646430
1.1675055140
1.1673120092
1.1699953044
1.1698588711
1.1731298051
1.1772624596
1.1653764621
1.1650962110
1.1662431090
1.1674756685
1.1690346207
1.1670619019
1.1694472211
1.1680726510
1.1643111057
1.1647234110
1.1738753201
1.1661240262
1.1661906406
1.1670555557
1.1777684162
1.1630581370
1.1757353362
1.1747684922
1.1662062078
1.1626971413
1.1654484860
1.1689707240
1.1638996490
1.1632669845
1.1652399735
1.1647239158
1.1744723740
1.1764348377
1.1629010360
1.1662718965
1.1861804467
1.1633432854
1.1673173704
1.1653792983
1.1710776311
1.1690508113
1.1676265256
1.1662117892
1.1699272197
1.1675819376
1.1707066925
1.1664024474
1.1714692392
1.1692767438
1.1687081857
1.1679574817
1.1688331090
1.1687391513
1.1623938955
1.1628324086
1.1764639830
1.1624043535
1.1652483029
1.1641116670
1.1651077769
1.1661971699
1.1741747460
1.1770764462
1.1643134292
1.1662751151
1.1667815479
1.1679460233
1.1631475653
1.1630609932
1.1627016851
1.1794850155
1.1683267385
1.1640696350
1.1757485487
1.1667486961
1.1647268867
1.1654734526
1.1726922238
1.1635555374
1.1747953920
1.1623027065
1.1676422993
1.1642343613
1.1716614675
1.1679662787
1.1753957413
1.1662157789
1.1621699953
1.1711365701
1.1627639445
1.1689533247
1.1700239024
1.1678080174
1.1698333962
1.1643370023
1.1736508651
1.1622284434
1.1712329062
1.1671190330
1.1699456740
1.1622089809
1.1709360494
1.1710937567
1.1662782741
1.1683360881
1.1637666183
1.1691760505
1.1624082802
1.1640749883
1.1632837656
1.1667867240
1.1733956984
1.1716220217
1.1651113331
1.1630887027
1.1770913711
1.1620467881
1.1741741535
1.1703276622
1.1697706756
1.1631501214
1.1627673243
1.1662862862
1.1676507887
1.1622325147
1.1721920645
1.1704922526
1.1648261149
1.1643395270
1.1885621131
1.1671248800
1.1689694124
1.1742681799
1.1727382263
1.1619738393
1.1677738028
1.1617974215
1.1684332791
1.1637119506
1.1711520747
1.1872944166
1.1698950780
1.1754021216
1.1620497054
1.1714607074
1.1712616414
1.1899168075
1.1663264067
1.1633827223
1.1633170059
1.1640052926
1.1708054445
1.1705840654
1.1634967302
1.1692840547
1.1628403105
1.1650054437
1.1634455836
1.1644339133
1.1669595902
1.1716438376
1.1630227481
1.1694034577
1.1649480832
1.1724636991
1.1676617672
1.1885567142
1.1648319158
1.1651238543
1.1849860801
1.1631590156
1.1656576155
1.1890131044
1.1715820971
1.1725776673
1.1718853935
1.1861082771
1.1652951564
1.1899083648
1.1635019139
1.1640784283
1.1676182912
1.1899885525
1.1634490713
1.1633220705
1.1679501982
1.1883684210
1.1712827108
1.1616019942
1.1891471506
1.1621580218
1.1633882397
1.1619554712
1.1650126780
1.1724297746
1.1871128154
1.1736586949
1.1728989661
1.1606329843
1.1649553426
1.1651309918
1.1932421719
1.1608721799
1.1662103414
1.1615808853
1.1666080257
1.1724805288
1.1606287848
1.1859644029
1.1616659341
1.1638616906
1.1831569471
1.1926414257
1.1606120233
1.1617919304
1.1899824659
1.1891354869
1.1879592694
1.1910602471
1.1653049439
1.1607376185
1.1871050076
1.1910549693
1.1620702960
1.1727454969
1.1719001551
1.1880004475
1.1614402138
1.1849836496
1.1892322406
1.1733187085
1.1623393901
1.1824764716
1.1904134673
1.1612430368
1.1616776543
1.1901178825
1.1605746122
1.1615838027
1.1917015722
1.1610085817
1.1608332613
1.1726770988
1.1662191441
1.1615788577
1.1611541269
1.1598690973
1.1807443423
1.1920616242
1.1617866087
1.1831541459
1.1729073218
1.1932239870
1.1606359434
1.1736539787
1.1616687085
1.1610733891
1.1614012314
1.1608749693
1.1604233751
1.1922757622
1.1611705539
1.1952283500
1.1724398451
1.1892221382
1.1910414709
1.1647500066
1.1604457339
1.1601182081
1.1833809012
1.1623644153
1.1892670035
1.1939953808
1.1620741911
1.1824728395
1.1727500544
1.1954076053
1.1924416985
1.1627607867
1.1612458087
1.1820887873
1.1614469036
1.1863002885
1.1607406337
1.1933624578
1.1913560423
1.1617604350
1.1603427423
1.1920449993
1.1734835510
1.1608365364
1.1846097031
1.1807413117
1.1726807837
1.1940744385
1.1615816286
1.1595718779
1.1907693723
1.1614043692
1.1780644304
1.1732469748
1.1595088323
1.1805244206
1.1933481938
1.1647566443
1.1647098703
1.1953927277
1.1601209270
1.1614501950
1.1632377395
1.1937177464
1.1604487346
1.1724415019
1.1926006503
1.1598576570
1.1610167669
1.1927558269
1.1634823636
1.1761546324
1.1631701002
1.1941722660
1.1740148245
1.1596175091
1.1927767835
1.1930794564
1.1794604476
1.1602535098
1.1734795060
1.1905263718
1.1927481834
1.1846030946
1.1747983831
1.1598573604
1.1597436326
1.1940281298
1.1937041516
1.1925870895
1.1939537382
1.1631729401
1.1632428759
1.1963445044
1.1661198832
1.1772966349
1.1610196564
1.1594099606
1.1732437796
1.1953315874
1.1944707600
1.1644209404
1.1963784902
1.1742461437
1.1757045464
1.1617226715
1.1596202223
1.1927214365
1.1598601184
1.1608937257
1.1604739325
1.1739551918
1.1930786801
1.1599413359
1.1745434900
1.1983640534
1.1871789699
1.1946778427
1.1925347705
1.1747836235
1.1944576132
1.1750800675
1.1958608690
1.1814440421
1.1955674182
1.1940113593
1.1758518058
1.1952056485
1.1966859670
1.1661280740
1.1950058992
1.1985931123
1.1900459481
1.1948276782
1.1753611713
1.1842247498
1.1968350534
1.1771039895
1.1953180898
1.1976416112
1.1963295368
1.1627772898
1.1756941363
1.1746659044
1.1608970166
1.1737173880
1.1790138889
1.1604764570
1.1749763213
1.1756279937
1.1655166919
1.1711646919
1.1678003265
1.1751931546
1.1757995540
1.1725906397
1.1611292673
1.1745317401
1.1754435615
1.1633587294
1.1694725553
1.1675637582
1.1749511694
1.1761803964
1.1858260132
1.1954360604
1.1969181122
1.1803200533
1.1759019243
1.1955509481
1.1750749803
1.1946602673
1.1973787351
1.1759265246
1.1916820791
1.1986382415
1.1958470942
1.1828326869
1.1936320846
1.1887132959
1.1981855748
1.1778795343
1.1888250907
1.1966408434
1.1966725545
1.1829235855
1.1766755903
1.1971525281
1.1752015579
1.1759259740
1.1942880593
1.1998271079
1.1857521172
1.1948116431
1.1914075004
1.1985798685
1.1733134714
1.1781856235
1.1767540753
1.1772896302
1.1775130301
1.1775857634
1.1747531133
1.1694892346
1.1659538858
1.1689785637
1.1753721861
1.1622508046
1.1713733250
1.1769607333
1.1748143752
1.1801391816
1.1627806613
1.1710726867
1.1743636896
1.1740062018
1.1771149837
1.1774247359
1.1775525833
1.1774600943
1.1750501226
1.1695414665
1.1678104505
1.1664730088
1.1756898853
1.1640771252
1.1712295169
1.1760754469
1.1731905084
1.1723375058
1.1744950763
1.1837930586
1.1944555244
1.1988476739
1.1973642884
1.1980843232
1.1876115752
1.1760238810
1.1768508711
1.1898876616
1.1759256813
1.1931507075
1.1787652846
1.1759448602
1.1817687919
1.1954208673
1.1868079168
1.1956119594
1.1998141932
1.2002548621
1.1905456519
1.1773073451
1.1765493447
1.1928571692
1.1755457546
1.1942732140
1.1810523765
1.1761250001
1.1846111449
1.1973566257
1.1790231665
1.1768032374
1.1798421623
1.1649393946
1.1768219913
1.1785968194
1.1763628487
1.1770843721
1.1745559235
1.1732133171
1.1752677256
1.1729592563
1.1778972599
1.1792749990
1.1803954048
1.1768567852
1.1802385843
1.1693895573
1.1794572277
1.1768446032
1.1801627927
1.1672114479
1.1767555784
1.1771351992
1.1767398188
1.1756333843
1.1731317906
1.1752480624
1.1702968074
1.1785293332
1.1804606840
1.1768435782
1.1796285872
1.1713908939
1.1879342641
1.1868018002
1.1779178428
1.1898709992
1.1857925800
1.1944418453
1.1862099089
1.1913780455
1.1769146365
1.1874565135
1.1760839197
1.1801655528
1.1914691662
1.1897999894
1.1885844800
1.1987316207
1.1757919838
1.1768554614
1.1871461771
1.1811038944
1.1917935365
1.1846233667
1.1849257903
1.1886844249
1.1965630612
1.1897244760
1.1921969988
1.1925009324
1.1875058435
1.1854086715
1.1773026019
1.1886392032
1.1888613730
1.1967736082
1.1839332493
1.1919456055
1.1786959691
1.1886314074
1.1755872371
1.1828233780
1.1928048727
1.1888930391
1.1863583485
1.2002430841
1.1765065063
1.1759127606
1.1903973175
1.1839825299
1.1928439173
1.1832640173
1.1864619822
1.1872965507
1.1997893762
1.1906907100
1.1920108928
1.1935757495
1.1699896298
1.1772730153
1.1791658202
1.1794480598
1.1800563190
1.1793407058
1.1832237447
1.1732867141
1.1779787232
1.1742055777
1.1691125934
1.1824138946
1.1638845554
1.1737217374
1.1808383099
1.1771566407
1.1783283580
1.1747055847
1.1781619802
1.1806001562
1.1684185643
1.1758615728
1.1835250661
1.1780015022
1.1789825123
1.1794458191
1.1678726085
1.1821838023
1.1668432425
1.1746187113
1.1800663211
1.1795503839
1.1819157068
1.1794661012
1.1835088126
1.1752883682
1.1832070689
1.1792855310
1.1651490874
1.1811806354
1.1645444241
1.1755256763
1.1815381819
1.1769235068
1.1779030627
1.1722963742
1.1789991041
1.1787766547
1.1709744790
1.1831830024
1.1786739462
1.1792487018
1.1693097390
1.1827592473
1.1843700796
1.1980099140
1.1857133007
1.1834606665
1.1881011659
1.1874580958
1.1909848580
1.1939536904
1.1832190229
1.1860851582
1.1964329765
1.1846663568
1.1860776954
1.1876371457
1.1781075213
1.1889377814
1.1832834650
1.1849272989
1.1863947943
1.1820563575
1.1909501356
1.1894704422
1.1884351407
1.1885903494
1.1853043316
1.1963652096
1.1889397885
1.1954994632
1.1796075634
1.1977088326
1.1815622110
1.1921965193
1.1756091959
1.1834403023
1.1850971580
1.1967376389
1.1956748467
1.1863953547
1.1935539739
1.1946049903
1.1914679751
1.1913805169
1.1982617792
1.1924892900
1.1779241930
1.1897249072
1.1880640943
1.1905377621
1.1857400449
1.1983284520
1.1854050824
1.1931908015
1.1817724547
1.1864200005
1.1862257814
1.1893369300
1.1952804555
1.1863146650
1.1862178177
1.1979066151
1.1852094377
1.1894331194
1.1804156458
1.1900271324
1.1840594093
1.1835191536
1.1835176500
1.1924983186
1.1903856998
1.1891219627
1.1902530649
1.1856527626
1.1952512220
1.1940846387
1.1769873357
1.1997789258
1.1824532421
1.1901572152
1.1919930962
1.1756268885
1.1820588409
1.1951566374
1.1949828121
1.1877971310
1.1919666170
1.1929934756
1.1906901685
1.1920120970
1.1990605403
1.1952542503
1.1763978931
1.1886325846
1.1893954015
1.1799595411
1.1725072461
1.2024628818
1.2020523137
1.1811948832
1.1764735246
1.1736959527
1.1825584276
1.1645419568
1.1940095288
1.1847505222
1.1811317216
1.1789913850
1.2033616294
1.1894763363
1.1741932926
1.1861710069
1.1774715729
1.1657268061
1.1757856252
1.2036638875
1.1818046514
1.1669785863
1.1985655968
1.2016585553
1.1699890142
1.1687010036
1.1776018232
1.1776020182
1.1748448580
1.1799074178
1.1821134591
1.2002672669
1.1708849724
1.1769254901
1.1956495891
1.1817781984
1.1817227712
1.1930110271
1.1700577206
1.1643183626
1.1770894127
1.1696276875
1.1987439817
1.1829187684
1.1751742773
1.2032272980
1.2011664064
1.1808038517
1.1739180750
1.1824366836
1.1651428797
1.1922006779
1.1805461805
1.1769244976
1.2024994106
1.1926697030
1.1792748240
1.1868733724
1.1793575299
1.1651792882
1.1775206306
1.2037273705
1.1823758564
1.1700443264
1.2000978534
1.2004263986
1.1690346300
1.1691059837
1.1755249942
1.1686637463
1.1748904085
1.1791717988
1.1816638004
1.2007889763
1.1678698700
1.1983243423
1.1831938713
1.1710404134
1.1791695243
1.1949856129
1.1775779969
1.1669875971
1.1756092070
1.1971191553
1.1798961527
1.1894660411
1.1757809740
1.1876374865
1.1956392105
1.1964332599
1.1865627028
1.1791737372
1.1713119453
1.1879167955
1.1573097694
1.1900193879
1.1636517449
1.1941639148
1.1731534690
1.1906939472
1.1648810852
1.1756100990
1.1729506187
1.1906952222
1.1872953590
1.1909507031
1.1610014169
1.1884330009
1.1839430306
1.1876763991
1.1832669195
1.1941666928
1.1659489088
1.1744012943
1.1980102164
1.1888934305
1.1857470097
1.1596941011
1.1843671779
1.1853435488
1.1939543634
1.1912225166
1.1848188718
1.1840606963
1.1928222924
1.1805996308
1.1519550009
1.1841418935
1.1993311805
1.1864629993
1.1948171688
1.1983325687
1.1770435288
1.1598542550
1.1948170900
1.1953270362
1.1799532564
1.1784450985
1.1931153896
1.1789960865
1.1861623178
1.1932178002
1.1774496701
1.1926587921
1.1775148239
1.1858216359
1.1983148956
1.1952812913
1.1848195042
1.1942063396
1.1770914704
1.1738034499
1.1895753386
1.1588643012
1.1940392077
1.1659186660
1.1733524445
1.1580200936
1.1748438019
1.1698885712
1.1877515583
1.1923224069
1.1893294293
1.1560954519
1.1885789531
1.1987006299
1.1946079107
1.1621680913
1.1763093469
1.1973606085
1.1835598888
1.1506737045
1.1860397617
1.1924997127
1.1983303715
1.1858214773
1.1860520545
1.1793968536
1.1537969862
1.1983290529
1.1977531180
1.1751225059
1.1523128911
1.1960974234
1.1982624455
1.1829116867
1.1807069512
1.1946318293
1.1823004307
1.1868636381
1.1854068792
1.1748874260