<VTKFile type="UnstructuredGrid" version="0.1">
	<UnstructuredGrid>
		<Piece NumberOfPoints="1862" NumberOfCells="3498">
			<CellData>
				<DataArray type="Int32" Name="type" NumberOfComponents="1" Format="ascii">
0
0
0
0
0
0
0
0
0
0
0
0
0
0
0
0
1
0
0
1
0
0
0
0
0
0
0
0
0
0
0
0
0
1
0
0
0
0
0
0
0
0
0
0
0
0
0
0
0
0
1
0
0
0
0
0
0
0
0
0
0
1
0
0
0
0
0
0
0
0
0
0
0
0
0
0
0
0
0
0
0
0
0
0
0
0
0
0
0
0
0
0
0
0
0
0
0
0
0
0
0
0
0
0
0
0
0
0
0
0
0
0
0
0
0
0
0
0
0
0
0
0
0
1
0
0
0
0
0
0
0
0
0
0
0
0
0
0
0
0
0
0
0
0
0
0
0
0
0
0
0
1
0
1
1
0
0
0
0
0
0
0
0
0
0
0
0
0
1
0
1
0
0
0
0
1
0
0
0
0
0
0
0
0
1
1
0
0
0
0
0
1
0
0
0
0
0
0
0
0
1
0
0
0
0
0
0
0
0
0
0
0
0
0
0
0
0
0
0
0
0
0
0
0
0
0
0
0
0
0
0
0
0
1
0
0
0
0
0
0
0
0
0
0
0
0
0
0
0
0
0
0
0
0
0
0
0
0
0
0
0
0
0
0
0
0
0
0
0
0
0
0
0
0
0
0
0
0
0
0
0
1
0
0
0
0
0
0
0
0
0
0
0
0
0
0
0
0
0
0
0
0
0
0
0
0
0
0
0
0
0
0
0
0
0
0
0
0
0
0
0
0
0
0
0
0
0
0
0
0
0
0
1
0
0
0
0
0
0
0
0
0
0
0
0
0
0
0
0
0
0
0
0
0
0
0
0
0
0
0
0
0
0
0
0
0
0
0
0
0
0
0
0
0
0
0
0
0
0
0
0
0
0
0
0
0
0
0
0
0
1
0
0
0
0
0
0
0
0
0
0
0
0
0
0
0
0
0
0
0
0
0
0
0
0
0
0
0
0
0
0
0
0
0
0
0
0
0
0
0
0
0
0
0
0
0
0
0
0
0
0
0
0
0
0
0
0
0
0
0
0
0
0
0
0
0
0
0
0
0
0
0
0
0
0
0
0
0
0
0
0
0
0
0
0
0
0
0
0
0
0
0
0
0
0
0
0
0
0
0
0
0
0
0
0
0
0
0
0
0
0
0
0
0
0
0
0
0
0
0
0
0
0
0
0
0
0
0
0
0
0
0
0
1
0
0
0
0
0
0
0
0
0
0
0
0
0
0
0
0
0
0
0
1
0
0
0
0
0
0
0
0
0
0
0
0
0
0
0
0
0
0
0
0
0
0
0
0
0
0
0
0
0
0
0
0
0
0
0
0
0
0
0
0
0
0
0
0
0
0
0
0
0
0
0
0
0
1
0
0
0
0
0
0
0
0
0
0
0
0
0
0
0
0
0
0
0
0
0
0
0
1
0
0
0
0
0
0
0
0
0
0
0
0
0
0
0
0
0
0
0
1
0
0
0
1
0
0
0
0
0
0
0
0
0
0
0
0
0
0
0
0
0
0
0
0
0
0
0
0
0
1
0
0
0
0
0
0
0
1
0
0
0
0
0
0
0
0
0
0
0
0
0
0
0
0
0
0
0
0
0
0
0
0
0
0
1
0
0
0
0
0
0
0
1
0
0
0
0
0
0
1
0
0
0
0
0
0
0
0
0
0
0
0
0
0
0
0
0
0
0
0
0
0
0
0
0
0
0
0
0
0
0
0
0
0
0
0
0
0
1
0
0
0
0
0
1
0
0
0
0
0
0
0
1
0
0
0
0
0
0
0
0
0
0
0
0
0
1
0
0
0
0
0
0
0
0
0
0
0
0
0
0
0
0
0
0
0
0
0
0
0
0
0
0
0
0
0
0
0
0
0
0
0
0
0
0
0
0
0
0
0
0
0
0
0
0
0
0
0
0
0
1
0
0
0
0
0
0
0
0
0
0
0
0
0
0
0
0
0
0
0
1
0
0
0
0
0
0
0
0
0
1
0
0
0
0
0
0
0
0
0
0
0
0
0
0
0
0
0
0
0
0
0
0
0
0
0
0
0
0
0
1
0
1
0
0
0
0
0
0
0
0
0
0
0
0
0
0
0
0
0
0
0
0
0
0
0
0
0
0
0
1
0
0
0
1
0
0
0
0
0
0
0
0
0
0
0
0
0
0
0
0
0
0
0
0
0
0
0
0
0
0
0
0
1
0
0
0
0
0
0
0
0
0
0
0
0
0
0
0
0
0
0
0
0
0
0
0
0
0
1
0
0
0
0
0
0
0
0
0
0
0
0
0
0
0
0
0
0
0
0
0
0
0
1
0
0
0
0
0
0
1
0
0
0
0
0
0
0
0
0
0
0
1
0
0
0
0
0
0
0
0
0
0
0
0
0
0
0
0
0
0
0
0
1
0
0
0
0
0
0
0
0
0
0
0
1
0
0
0
0
0
0
0
0
0
0
0
0
0
0
0
0
0
0
0
0
0
1
0
0
0
0
0
0
0
0
0
1
1
0
1
0
1
0
0
0
0
0
0
0
0
0
0
0
1
0
0
0
0
0
1
1
0
0
0
0
0
0
1
0
0
0
0
0
1
1
1
0
0
0
0
0
0
0
0
0
0
0
0
1
1
0
0
1
0
0
0
0
0
1
0
0
0
1
0
1
0
0
0
0
0
0
0
1
0
0
0
0
0
0
0
1
0
0
1
0
0
0
0
0
0
0
0
0
0
0
0
0
0
0
1
0
0
0
0
0
0
0
0
0
0
0
0
0
0
0
0
0
0
0
0
0
0
0
0
0
0
0
0
0
0
0
0
0
0
0
0
1
0
0
0
0
0
0
1
0
0
0
1
0
0
0
0
0
0
0
0
0
0
0
1
0
0
0
0
0
0
0
0
0
0
0
0
0
0
0
0
0
0
0
0
0
0
0
0
0
0
0
0
0
0
0
0
0
0
0
0
0
0
0
0
1
1
0
0
0
0
0
0
0
0
0
0
0
0
0
1
0
0
0
0
0
0
0
0
0
0
0
0
0
0
0
0
0
0
0
0
0
0
0
0
0
0
0
0
0
0
0
0
0
0
0
0
0
0
0
0
0
0
0
0
0
0
0
0
0
0
0
0
0
0
0
0
0
0
0
0
0
0
0
0
0
0
0
0
0
0
0
0
1
1
0
0
0
0
0
0
0
0
1
0
0
0
0
0
0
0
0
0
0
0
0
0
0
0
0
0
0
0
0
0
0
0
1
0
0
0
0
0
0
0
0
0
0
0
0
0
0
0
0
1
0
0
0
0
0
0
0
0
0
0
0
0
0
0
0
0
0
0
0
0
0
0
0
0
0
0
0
0
0
0
0
0
0
0
0
0
0
0
0
0
0
0
0
0
0
0
0
0
0
0
0
0
0
0
0
0
0
0
0
0
0
0
0
0
0
0
0
0
0
0
0
0
0
0
0
0
0
0
0
0
0
0
0
0
0
0
0
0
0
0
1
1
0
0
0
0
0
1
0
0
0
0
0
0
0
0
0
0
0
0
1
0
0
0
0
0
0
0
0
0
0
0
0
0
0
0
0
0
0
0
0
0
0
0
0
0
0
0
0
0
0
0
0
0
0
0
0
0
0
0
0
0
0
0
0
0
0
0
0
0
0
0
0
0
1
0
1
0
0
0
0
0
0
0
0
0
0
0
0
0
0
0
0
0
0
1
0
0
0
0
0
0
0
0
0
0
0
0
0
0
0
0
0
0
0
0
0
0
0
0
0
0
0
0
0
0
0
0
0
0
0
0
0
0
0
0
0
0
0
0
0
0
0
0
0
0
0
0
0
0
0
0
0
0
0
0
0
0
0
0
0
0
0
0
0
0
1
0
0
0
0
0
0
0
0
0
0
1
0
0
0
0
0
0
0
0
0
0
0
0
0
0
0
0
0
0
0
0
0
0
0
0
0
0
0
0
0
0
0
0
0
0
0
0
0
1
0
0
0
0
0
0
0
0
0
0
0
0
0
0
0
0
0
0
0
0
0
0
0
0
0
0
0
0
0
0
0
0
0
0
0
0
0
0
0
0
0
0
0
0
0
0
0
0
0
0
0
0
0
0
0
0
0
0
0
0
0
0
0
0
0
0
0
0
0
0
0
0
0
0
0
0
0
0
0
0
0
1
0
0
0
0
0
0
0
0
0
0
0
0
0
0
0
0
0
0
0
0
0
0
0
0
0
0
0
0
0
0
0
0
0
0
0
0
0
0
0
0
0
0
0
0
0
0
0
0
0
0
0
0
0
0
0
0
0
0
0
0
0
0
0
0
0
0
0
0
0
0
0
0
0
0
0
0
0
0
0
0
0
0
0
0
0
0
0
0
0
0
0
0
0
0
0
0
0
0
0
0
0
0
0
0
0
0
0
0
0
0
0
0
0
0
0
0
0
0
0
0
0
0
0
1
0
0
0
0
0
0
0
0
0
0
0
0
0
0
0
0
0
0
0
0
0
0
0
0
0
0
0
0
0
0
0
0
0
0
0
0
0
0
0
0
0
0
0
0
0
0
0
0
0
0
0
0
0
0
0
0
0
0
0
0
0
0
0
0
0
0
0
0
0
0
0
0
0
0
0
0
0
0
0
0
0
1
0
0
0
0
0
0
0
1
0
0
0
0
0
0
0
0
0
0
0
0
0
0
0
0
0
0
0
0
0
0
0
0
0
0
0
0
0
0
0
0
0
0
0
0
0
1
0
0
0
0
0
0
0
0
0
0
0
0
0
0
0
0
0
0
0
0
0
1
0
0
0
0
0
0
0
0
0
0
0
0
1
1
0
0
0
0
0
0
0
0
0
0
0
0
0
0
0
1
1
0
1
0
0
0
0
0
0
0
0
0
1
0
0
0
0
0
0
1
0
0
0
0
0
0
0
0
0
0
1
0
0
0
0
1
0
1
0
0
0
0
0
0
0
1
0
0
0
1
0
0
0
1
0
1
1
0
0
1
1
0
0
0
1
0
0
0
1
0
0
0
0
0
0
0
0
0
1
0
0
0
0
0
0
1
0
0
0
0
0
0
0
0
0
0
0
0
0
0
0
0
0
0
0
0
0
0
0
0
0
0
0
1
0
0
1
0
0
0
0
0
0
0
0
0
0
0
0
0
0
0
0
0
0
1
0
0
1
0
0
0
0
0
0
0
0
0
0
0
1
0
0
1
0
0
0
0
0
0
0
0
0
0
0
1
1
0
0
0
0
0
0
0
0
0
0
0
0
1
0
0
0
0
0
0
0
0
0
0
0
0
0
0
0
0
0
1
0
0
0
0
0
0
0
0
0
0
0
0
0
0
0
0
0
1
0
0
0
0
0
0
0
0
0
0
0
0
0
0
0
0
0
0
0
0
0
0
0
0
0
0
0
0
0
0
0
0
0
0
0
0
0
0
0
0
1
0
0
0
0
0
0
0
0
0
0
0
0
0
0
0
0
0
0
0
0
0
0
0
0
0
0
0
0
0
0
0
0
0
0
0
0
0
0
0
0
0
0
0
0
0
1
0
0
0
0
0
0
0
0
0
0
0
0
0
0
0
0
0
0
0
0
0
0
0
0
0
0
0
0
0
0
0
0
0
0
0
0
0
0
0
0
0
0
0
0
0
0
0
1
0
0
0
0
0
0
0
0
0
0
1
0
0
0
0
0
0
0
0
0
0
0
0
0
0
0
1
0
0
1
0
0
0
0
0
0
0
0
0
0
0
0
0
0
0
0
0
0
0
0
0
0
0
1
0
0
0
0
0
0
0
0
0
0
0
0
0
0
0
0
0
0
0
0
0
0
0
0
0
0
0
0
0
0
0
0
0
0
0
1
0
0
0
0
0
0
0
0
0
0
0
0
0
0
0
0
0
0
0
0
0
0
0
0
0
0
0
0
0
0
0
0
0
0
0
0
0
0
0
0
0
0
0
0
0
0
0
0
0
0
0
0
0
0
0
0
0
0
0
0
0
0
0
0
0
0
0
0
0
0
0
0
0
0
0
0
1
0
0
0
0
0
0
0
0
0
0
0
0
0
0
0
0
0
0
0
0
0
0
0
0
0
0
0
0
0
0
0
0
0
0
0
0
0
0
0
1
0
0
0
0
0
0
0
0
0
0
0
0
1
1
0
0
0
0
0
0
0
0
0
0
0
0
0
0
0
0
0
0
0
0
0
0
0
0
0
0
0
0
0
0
0
0
0
0
0
0
0
0
0
0
0
0
0
0
0
0
0
0
0
0
0
0
0
0
0
0
0
0
0
0
0
0
0
0
0
0
0
0
0
0
0
0
0
0
0
0
0
0
0
0
0
0
0
0
0
0
0
0
0
0
0
0
0
0
0
0
0
0
0
0
0
1
0
1
0
0
0
0
0
0
0
1
1
1
1
0
0
0
0
0
0
0
0
0
0
0
0
0
0
0
0
0
0
0
0
0
0
0
0
0
0
0
0
1
1
0
0
0
0
0
0
0
0
0
0
0
0
0
0
0
0
0
0
1
0
0
0
0
0
0
0
1
1
0
1
1
0
0
1
0
0
0
0
0
0
0
1
0
1
0
0
0
0
0
0
0
0
0
0
0
0
0
0
0
0
0
0
0
0
0
0
0
0
0
0
0
1
1
0
0
0
1
1
0
0
0
0
1
0
0
1
0
1
0
0
0
0
0
1
0
0
0
1
0
0
0
0
0
0
0
0
0
0
0
0
0
0
0
0
0
0
0
0
0
0
0
0
0
0
0
1
0
0
0
0
0
0
1
0
0
0
0
0
0
0
0
0
0
0
0
0
0
0
0
0
0
0
0
0
0
0
0
0
0
0
0
0
1
0
1
0
0
0
0
0
0
0
1
0
0
0
0
0
0
0
0
0
0
0
1
0
0
0
0
0
0
0
0
0
1
0
0
0
0
0
0
0
1
0
0
0
0
0
0
0
1
0
0
0
0
0
0
0
0
0
0
0
0
0
0
0
0
0
0
0
1
0
1
0
0
0
0
0
1
0
0
0
0
0
0
0
0
0
0
0
0
0
0
0
0
0
0
0
0
0
0
0
0
0
1
0
1
0
0
0
0
0
0
0
0
0
1
0
0
0
0
0
1
0
0
0
0
0
0
0
0
0
0
0
0
0
0
0
1
0
0
0
0
0
0
0
0
1
0
0
0
0
0
0
0
0
0
0
0
0
0
0
0
0
0
0
0
0
0
0
0
0
0
0
0
0
0
0
1
0
0
0
0
0
0
0
0
0
0
0
0
0
0
0
0
1
0
0
0
0
0
0
0
0
1
0
0
0
0
0
0
0
0
0
1
0
0
0
0
0
1
0
0
0
0
0
0
0
0
0
0
0
0
0
0
0
0
0
0
0
1
0
0
0
0
0
0
1
0
0
0
0
0
0
0
0
1
0
0
0
0
0
0
0
0
0
0
0
0
0
0
1
0
0
1
0
0
0
1
0
0
0
0
0
0
0
0
0
0
0
0
0
0
0
0
1
0
0
0
0
0
0
0
0
0
0
1
0
1
0
0
0
0
0
0
1
0
0
0
0
0
0
0
0
0
0
0
0
0
0
0
0
0
0
0
0
0
0
0
0
0
0
0
1
1
0
0
0
0
0
0
1
0
0
0
0
0
0
0
0
0
0
0
0
0
1
0
0
0
0
0
0
0
1
0
0
0
0
0
0
0
0
0
0
0
0
0
0
0
0
0
0
0
0
0
0
0
0
0
0
0
1
0
0
0
0
0
0
0
0
0
0
1
0
0
1
0
0
0
0
0
0
0
0
0
0
0
0
0
0
0
0
0
0
0
0
0
0
0
0
0
0
0
0
0
1
0
0
0
0
0
0
0
1
0
0
0
0
0
0
0
1
0
0
0
0
1
0
0
0
0
0
0
0
0
0
0
0
1
0
1
0
0
0
1
0
				</DataArray>
				<DataArray type="Float64" Name="h" NumberOfComponents="1" Format="ascii">
1.1872482000
1.1872555902
1.1853351672
1.1870079889
1.1850728648
1.1856388823
1.1861533903
1.1879030386
1.1867378579
1.1892939350
1.1875984458
1.1858993988
1.1879400790
1.1883048193
1.1878135802
1.1890660212
1.1865043418
1.1890324528
1.1873114998
1.1877944667
1.1846245585
1.1877117554
1.1860155121
1.1843903842
1.1871037140
1.1897509504
1.1865999852
1.1824846270
1.1850524317
1.1888318279
1.1883659487
1.1858538925
1.1878719779
1.1852684936
1.1820631670
1.1840056124
1.1833079639
1.1856352434
1.1823781850
1.1841496562
1.1848203112
1.1822488447
1.1864415976
1.1846333827
1.1837665366
1.1832015298
1.1854599835
1.1814760056
1.1757336872
1.1761982269
1.1839801956
1.1836380542
1.1844419409
1.1795157071
1.1826234354
1.1860366389
1.1830270085
1.1802093541
1.1796938027
1.1799386283
1.1786685938
1.1791731995
1.1761574169
1.1834313035
1.1839761743
1.1810729628
1.1766924848
1.1766695275
1.1791623838
1.1797047107
1.1795432699
1.1824544315
1.1852726817
1.1788589983
1.1792887452
1.1814310455
1.1800905827
1.1785433087
1.1807101070
1.1818141168
1.1776999984
1.1803747064
1.1742686995
1.1772062586
1.1826951573
1.1805834031
1.1773402989
1.1777369479
1.1781426215
1.1745286025
1.1769112657
1.1812666501
1.1780776724
1.1748730824
1.1797968106
1.1804781251
1.1784363714
1.1824404658
1.1817501975
1.1772281350
1.1745833681
1.1777661898
1.1790503531
1.1807942737
1.1905633686
1.1771744023
1.1792688364
1.1753060696
1.1786154262
1.1797189021
1.1752797607
1.1748962365
1.1773471334
1.1765612625
1.1783612830
1.1755827478
1.1789943865
1.1900550791
1.1757581318
1.1777231578
1.1904372736
1.1783568500
1.1801213794
1.1913306064
1.1770754227
1.1753338997
1.1783175941
1.1916385182
1.1759571411
1.1752887981
1.1761301043
1.1791502891
1.1776868837
1.1757526886
1.1900388750
1.1761135895
1.1905057096
1.1754619487
1.1769858054
1.1885899804
1.1919113229
1.1907382668
1.1758073015
1.1874552479
1.1799708523
1.1765366415
1.1895925344
1.1746052885
1.1910870430
1.1745688677
1.1909227409
1.1755140435
1.1752374348
1.1748100139
1.1773354358
1.1750572315
1.1751846086
1.1912287716
1.1747654354
1.1927878697
1.1881157649
1.1748221246
1.1901024163
1.1921498868
1.1914527193
1.1747645064
1.1862146602
1.1892213402
1.1921964826
1.1749131069
1.1752321756
1.1928029944
1.1750165962
1.1914419427
1.1856494515
1.1754062816
1.1869239505
1.1740494741
1.1752346923
1.1922445004
1.1750157801
1.1843414296
1.1928760807
1.1795054308
1.1930113595
1.1932442677
1.1849291989
1.1749890247
1.1924787940
1.1933591246
1.1830360024
1.1751709281
1.1932643233
1.1836307042
1.1753878890
1.1742309657
1.1920491001
1.1817257567
1.1823358280
1.1743208940
1.1934107665
1.1788058459
1.1932958592
1.1747488887
1.1803929577
1.1929727497
1.1892856083
1.1910372901
1.1810119517
1.1870720878
1.1832515718
1.1931765133
1.1924574605
1.1932159386
1.1902094838
1.1819248675
1.1882266362
1.1924619981
1.1845563665
1.1931583686
1.1796761580
1.1744469746
1.1858378455
1.1752828270
1.1781939660
1.1738432900
1.1739222915
1.1765766599
1.1790588958
1.1741419160
1.1743051030
1.1748287090
1.1773696879
1.1740341001
1.1737654946
1.1758548568
1.1826452477
1.1889277846
1.1933557854
1.1866882706
1.1828500661
1.1907391546
1.1927107364
1.1865306912
1.1906735326
1.1888443917
1.1927760596
1.1839665433
1.1898921182
1.1921702302
1.1878525037
1.1841690138
1.1921894792
1.1813069211
1.1815062716
1.1929641514
1.1877300524
1.1898303524
1.1932140801
1.1748320990
1.1854532136
1.1777508852
1.1761600794
1.1748601625
1.1775180339
1.1736016498
1.1733624881
1.1792351672
1.1738016186
1.1739814526
1.1734575891
1.1852670544
1.1740762991
1.1759585277
1.1753337890
1.1786248131
1.1769276042
1.1754583724
1.1743730193
1.1783557084
1.1738234690
1.1735256748
1.1736469421
1.1732976238
1.1736758213
1.1744145347
1.1767173317
1.1885561273
1.1924804321
1.1923824095
1.1884637772
1.1822360565
1.1904048503
1.1903747077
1.1863028314
1.1824439289
1.1861373152
1.1895369171
1.1918316363
1.1929621742
1.1926240850
1.1894802334
1.1835686510
1.1810933541
1.1808876665
1.1874726172
1.1837725932
1.1873410182
1.1918767525
1.1773212551
1.1755529644
1.1757227838
1.1732851841
1.1788053444
1.1729762530
1.1743819263
1.1850638464
1.1736090885
1.1728678852
1.1848736126
1.1744205970
1.1770719430
1.1735094778
1.1731263168
1.1764899344
1.1762828122
1.1750275743
1.1731568070
1.1749123157
1.1739507759
1.1733558886
1.1728107441
1.1730169012
1.1782083060
1.1739152909
1.1779142410
1.1731972663
1.1880804727
1.1713454018
1.1859220411
1.1820478539
1.1857445929
1.1921311296
1.1818321910
1.1900474944
1.1881847871
1.1900282264
1.1920085915
1.1712273456
1.1754705718
1.1806973015
1.1725893945
1.1891109217
1.1915333095
1.1708033951
1.1870965562
1.1742854803
1.1833806381
1.1869516622
1.1716579054
1.1717094152
1.1707216511
1.1926220226
1.1831688905
1.1804831186
1.1891718520
1.1773637576
1.1758816154
1.1738568652
1.1922278328
1.1727902390
1.1709564359
1.1914646789
1.1723645751
1.1739281133
1.1739729283
1.1726353294
1.1906104399
1.1724854887
1.1769117353
1.1783953143
1.1731311471
1.1727713971
1.1846777522
1.1730345568
1.1844780581
1.1766343337
1.1751174617
1.1752884897
1.1852221969
1.1725061146
1.1778165987
1.1744748486
1.1789789981
1.1723123720
1.1734539709
1.1906243288
1.1884224828
1.1874303708
1.1815385833
1.1760658605
1.1728733908
1.1828015483
1.1734816665
1.1802590631
1.1726567188
1.1727125542
1.1774880973
1.1758417287
1.1840334730
1.1745876560
1.1763861588
1.1725504606
1.1751575223
1.1877019800
1.1711316634
1.1718992973
1.1853580535
1.1720981667
1.1758260751
1.1771088507
1.1783883041
1.1896678639
1.1714170150
1.1706340603
1.1735933898
1.1716418643
1.1917503803
1.1712617752
1.1814465596
1.1746227708
1.1703415858
1.1721804747
1.1707490605
1.1734924584
1.1731754405
1.1701149443
1.1721759194
1.1716335156
1.1769122878
1.1748977905
1.1721467648
1.1887405064
1.1708651559
1.1754352356
1.1865681523
1.1750021338
1.1737599046
1.1730235210
1.1708453797
1.1718097890
1.1717419779
1.1922257450
1.1767181999
1.1827808296
1.1783875117
1.1697494131
1.1702945783
1.1731742385
1.1698532225
1.1911694226
1.1801032418
1.1873366229
1.1722574764
1.1840899888
1.1734725695
1.1742552473
1.1762153275
1.1805280485
1.1893175185
1.1721352997
1.1849861135
1.1726501417
1.1824161304
1.1780134332
1.1746789208
1.1692599906
1.1842902607
1.1913634508
1.1904705298
1.1899898773
1.1797570310
1.1883829862
1.1721504751
1.1694466511
1.1694841761
1.1723842785
1.1892927508
1.1740300632
1.1881619455
1.1745575813
1.1770862220
1.1688930073
1.1908072879
1.1906230523
1.1863578246
1.1861976492
1.1689564767
1.1730122736
1.1898759833
1.1709998790
1.1701329866
1.1854791393
1.1874293775
1.1815378990
1.1837201674
1.1754102266
1.1918066517
1.1784341845
1.1734815614
1.1892939060
1.1810897646
1.1719066146
1.1849853234
1.1767772866
1.1913614014
1.1714825931
1.1758733246
1.1912269218
1.1852007923
1.1810887193
1.1739939783
1.1746951276
1.1709661107
1.1874893760
1.1704646156
1.1907922203
1.1729069166
1.1780004947
1.1813245170
1.1712749880
1.1873355845
1.1724429423
1.1893608950
1.1893157406
1.1812005085
1.1908052020
1.1861968234
1.1918046278
1.1780000788
1.1797559324
1.1824224230
1.1869088011
1.1916073579
1.1847640585
1.1863880701
1.1907607539
1.1824151624
1.1836145793
1.1879088799
1.1698622251
1.1858626103
1.1884852292
1.1787344329
1.1907299074
1.1775251722
1.1799903158
1.1888746149
1.1705170787
1.1701711739
1.1826498126
1.1898035600
1.1702932786
1.1883815883
1.1799652930
1.1721731961
1.1837193012
1.1742541712
1.1725592722
1.1717426845
1.1839481469
1.1735867783
1.1706188560
1.1727008028
1.1758243310
1.1908790258
1.1776668740
1.1756020797
1.1719059952
1.1823264668
1.1860638624
1.1730223516
1.1709993449
1.1913144868
1.1744874208
1.1890723736
1.1716320281
1.1725484732
1.1750006349
1.1885177816
1.1716413815
1.1814202170
1.1866138961
1.1799054912
1.1876191309
1.1767165053
1.1810130592
1.1912116233
1.1689985459
1.1830599564
1.1792556986
1.1836179683
1.1693186995
1.1871781324
1.1735925309
1.1865373523
1.1834039120
1.1694192452
1.1718963252
1.1912663300
1.1845069446
1.1898162435
1.1697825772
1.1894969306
1.1756018678
1.1881884576
1.1724879060
1.1893593057
1.1839472125
1.1813235403
1.1874882746
1.1699722505
1.1763538714
1.1904170587
1.1912250626
1.1848700280
1.1891828952
1.1689192983
1.1907280693
1.1871794579
1.1834037099
1.1885609782
1.1863585010
1.1799893127
1.1851998735
1.1826488536
1.1884838937
1.1698972689
1.1686023247
1.1708553539
1.1734459256
1.1916054710
1.1844547596
1.1822580198
1.1817860709
1.1690765557
1.1702570047
1.1787342395
1.1855535350
1.1691677992
1.1885684243
1.1855160061
1.1906825733
1.1886909099
1.1884612545
1.1830663601
1.1804877239
1.1863871102
1.1705537854
1.1866588783
1.1910194539
1.1895210449
1.1716221264
1.1693515757
1.1684017472
1.1713164908
1.1898650556
1.1843140919
1.1901881062
1.1877258164
1.1685335288
1.1683490793
1.1812001000
1.1854459450
1.1823127008
1.1879076989
1.1698234849
1.1879188131
1.1872694654
1.1678520488
1.1682128731
1.1840558326
1.1850112047
1.1694196635
1.1859046377
1.1864202676
1.1882789189
1.1686952788
1.1680368716
1.1683043007
1.1869210615
1.1879106180
1.1887162883
1.1888804840
1.1881496709
1.1689043089
1.1684270601
1.1701939820
1.1694941641
1.1886701853
1.1680638836
1.1677310127
1.1896689207
1.1686030313
1.1691981813
1.1912661736
1.1676305518
1.1858619891
1.1681826096
1.1892136180
1.1882012046
1.1676811783
1.1894967941
1.1678900588
1.1680693409
1.1898026148
1.1683187001
1.1906847341
1.1922046003
1.1686461988
1.1685300299
1.1906739689
1.1864432268
1.1861913113
1.1861976349
1.1864510692
1.1864783133
1.1858976289
1.1875958357
1.1874351599
1.1854081631
1.1856356744
1.1850764016
1.1854135651
1.1867419186
1.1878091545
1.1861496986
1.1887365391
1.1874388809
1.1864809174
1.1883984921
1.1890306211
1.1870101838
1.1853374218
1.1873033717
1.1888304068
1.1889242875
1.1858749529
1.1879067045
1.1897514044
1.1871023215
1.1892954333
1.1882435826
1.1879456869
1.1848130605
1.1885221488
1.1867998446
1.1887385219
1.1883650952
1.1884025755
1.1852682047
1.1878662220
1.1858432014
1.1873193512
1.1841479832
1.1829766229
1.1865047117
1.1890679143
1.1864314895
1.1823692016
1.1858759110
1.1889263052
1.1848135140
1.1883062806
1.1877947478
1.1848144688
1.1860269695
1.1811429495
1.1877180908
1.1835134970
1.1882491301
1.1846251088
1.1868102071
1.1869881324
1.1817245267
1.1814758802
1.1885249176
1.1837637479
1.1839799747
1.1854470585
1.1824930575
1.1843927436
1.1850609801
1.1830191154
1.1836374566
1.1866090984
1.1826933269
1.1894771287
1.1829854724
1.1820964418
1.1820072712
1.1873256940
1.1844313551
1.1811426900
1.1757313499
1.1766597269
1.1869978559
1.1835144535
1.1829679408
1.1817292430
1.1840098566
1.1839643044
1.1856472142
1.1815625055
1.1820634254
1.1761616252
1.1766735821
1.1816357292
1.1833082144
1.1834267856
1.1820977421
1.1805779549
1.1801786103
1.1846449174
1.1788611786
1.1800790891
1.1824530896
1.1852625052
1.1796862163
1.1839442511
1.1841517804
1.1826941096
1.1786862192
1.1820073343
1.1822520213
1.1800909830
1.1795439354
1.1787758831
1.1792902021
1.1836476235
1.1850579765
1.1791625580
1.1826667611
1.1894783406
1.1797045461
1.1829693963
1.1815625609
1.1811167910
1.1816390433
1.1772079359
1.1811477549
1.1762073125
1.1757289563
1.1836445684
1.1766561729
1.1832106698
1.1803728210
1.1772097127
1.1809032801
1.1757261164
1.1761934877
1.1786686071
1.1791734648
1.1850694671
1.1781906126
1.1787732682
1.1796929420
1.1804602206
1.1800780417
1.1821242530
1.1846981612
1.1805775170
1.1826668482
1.1813285287
1.1826255133
1.1791558581
1.1796861166
1.1786865531
1.1860452406
1.1802894903
1.1791701542
1.1839529863
1.1795144447
1.1801778445
1.1799374215
1.1812615527
1.1802092330
1.1841627584
1.1780781832
1.1772046513
1.1807941827
1.1817429845
1.1809035333
1.1833753378
1.1811473505
1.1777657939
1.1766805177
1.1777296122
1.1777791896
1.1810774757
1.1745865476
1.1766885174
1.1813307040
1.1824328216
1.1781899495
1.1804737911
1.1807822518
1.1762023444
1.1772283658
1.1771769507
1.1811219989
1.1743613442
1.1802903826
1.1786165858
1.1749013922
1.1781906431
1.1791688057
1.1773482945
1.1813282640
1.1814354381
1.1752871238
1.1804593778
1.1785425906
1.1847069364
1.1768282567
1.1821289430
1.1752855379
1.1797166970
1.1791553358
1.1777289699
1.1743601256
1.1796063280
1.1781903628
1.1805872424
1.1783569986
1.1781719805
1.1813307180
1.1902843413
1.1807817428
1.1777773208
1.1827016259
1.1818205832
1.1773404267
1.1742663522
1.1777000984
1.1789945803
1.1807099045
1.1766765212
1.1904381434
1.1777350391
1.1833822604
1.1768278084
1.1791482690
1.1757263776
1.1904393055
1.1753372636
1.1774967566
1.1765270602
1.1781405461
1.1797990483
1.1748672073
1.1753133942
1.1745241679
1.1769101051
1.1757121153
1.1802044163
1.1770780697
1.1783197511
1.1752810574
1.1752886112
1.1790504138
1.1749922818
1.1757578205
1.1796058092
1.1902833266
1.1781688757
1.1761553401
1.1900390109
1.1761143970
1.1776907374
1.1905623675
1.1784361371
1.1799678935
1.1761687941
1.1907389138
1.1771172569
1.1904377210
1.1753129184
1.1765584488
1.1753016813
1.1901325402
1.1802045928
1.1765255848
1.1783594722
1.1910882461
1.1757211579
1.1758068363
1.1917094392
1.1755833137
1.1774949325
1.1765366772
1.1757096637
1.1792705343
1.1907195624
1.1808289799
1.1762918747
1.1753697794
1.1749911758
1.1761517166
1.1912761042
1.1756473819
1.1749441379
1.1769468578
1.1777193122
1.1757525954
1.1755129311
1.1900548538
1.1765910524
1.1757567710
1.1895613789
1.1909263268
1.1752361002
1.1773349651
1.1901310111
1.1917081574
1.1892216462
1.1914546108
1.1771140769
1.1748451483
1.1907187217
1.1919047135
1.1744429592
1.1768982000
1.1761647794
1.1913295550
1.1759578375
1.1881132495
1.1910482502
1.1801241332
1.1761299767
1.1895951302
1.1901047895
1.1762518182
1.1748205539
1.1916369915
1.1747637613
1.1769471646
1.1905031946
1.1757535669
1.1751183261
1.1771101994
1.1749418728
1.1753016386
1.1754630266
1.1750148841
1.1890725730
1.1911326944
1.1769862390
1.1895616209
1.1762882746
1.1912725348
1.1753710782
1.1808319612
1.1765913606
1.1749116870
1.1763069432
1.1756482972
1.1752307440
1.1914443776
1.1745705697
1.1928780456
1.1778087562
1.1910468750
1.1919029192
1.1746719759
1.1749230793
1.1749137741
1.1874604130
1.1746067020
1.1895918630
1.1922468180
1.1744446152
1.1895951900
1.1768964586
1.1926614630
1.1919092659
1.1750150548
1.1762524112
1.1869190325
1.1766133322
1.1885921993
1.1748467539
1.1924795306
1.1924804670
1.1750582959
1.1751862033
1.1911296520
1.1779646648
1.1751198236
1.1902707972
1.1890725398
1.1771086852
1.1930128781
1.1753025798
1.1748114550
1.1912265406
1.1763075391
1.1849224471
1.1786502105
1.1753861077
1.1862215468
1.1924776065
1.1746714882
1.1742302183
1.1926592572
1.1749154464
1.1766138473
1.1745128786
1.1929607575
1.1749246516
1.1778093565
1.1923363398
1.1751692121
1.1759855429
1.1921476492
1.1747649186
1.1836253818
1.1741991829
1.1927859637
1.1788040109
1.1750347123
1.1928013543
1.1932976620
1.1856551919
1.1747469707
1.1779653724
1.1921950249
1.1934125564
1.1902702887
1.1823321705
1.1748502145
1.1752363753
1.1919869189
1.1929589675
1.1923345628
1.1931782773
1.1742010034
1.1745139426
1.1926960893
1.1741069349
1.1843466030
1.1759862767
1.1754079537
1.1786519683
1.1933930811
1.1934268345
1.1740508260
1.1924600237
1.1810095338
1.1830396985
1.1743026760
1.1750365899
1.1933573402
1.1748523325
1.1745627312
1.1745435566
1.1795073233
1.1932424823
1.1749908070
1.1796749841
1.1927783155
1.1888450165
1.1917508970
1.1906770536
1.1817279247
1.1934251187
1.1805792818
1.1931320846
1.1865276498
1.1918022322
1.1919841736
1.1826436449
1.1932625465
1.1934078983
1.1741066823
1.1920461935
1.1933101067
1.1898328601
1.1914743961
1.1813065026
1.1877285295
1.1921923198
1.1839637961
1.1933913746
1.1933575345
1.1926938131
1.1741172309
1.1799602332
1.1803937796
1.1745647810
1.1744211176
1.1852636547
1.1745459011
1.1753380468
1.1783546004
1.1736443342
1.1738274234
1.1737951382
1.1767171774
1.1792353786
1.1740820727
1.1743237339
1.1748381158
1.1775167008
1.1737978223
1.1736648748
1.1736011289
1.1759604692
1.1832542414
1.1884646389
1.1915030665
1.1931564677
1.1861357664
1.1822359881
1.1917989384
1.1805796040
1.1917476258
1.1929976936
1.1801522490
1.1903780263
1.1924827946
1.1931302107
1.1870753611
1.1910337561
1.1892846711
1.1929706582
1.1845600445
1.1894826235
1.1918796635
1.1934061988
1.1873403588
1.1835676882
1.1924593610
1.1819264162
1.1808885331
1.1911712923
1.1931080752
1.1882280002
1.1914709181
1.1902068141
1.1933083235
1.1748224396
1.1848720341
1.1795397497
1.1779145886
1.1762819318
1.1749147674
1.1773708907
1.1736631486
1.1737671131
1.1731548868
1.1790591408
1.1740370102
1.1733303686
1.1739569859
1.1733607430
1.1858418918
1.1741197723
1.1741367885
1.1758522583
1.1752779696
1.1788070489
1.1770711791
1.1755532607
1.1743866843
1.1781954312
1.1739192981
1.1737946088
1.1732811328
1.1799593670
1.1738463283
1.1731268211
1.1736152855
1.1731966214
1.1744405668
1.1765763422
1.1880813968
1.1911679769
1.1927084846
1.1929956164
1.1921334900
1.1889265267
1.1828509824
1.1797384927
1.1900310680
1.1801511597
1.1907356968
1.1857441441
1.1818330332
1.1866899108
1.1914997135
1.1891129600
1.1915360809
1.1931061711
1.1928097923
1.1898894060
1.1841706852
1.1804846276
1.1908360525
1.1815062306
1.1911678539
1.1869516366
1.1831690919
1.1878529284
1.1921674273
1.1774898752
1.1754573806
1.1758415080
1.1735292966
1.1786234323
1.1728782153
1.1743674248
1.1844777533
1.1736696588
1.1731938334
1.1728469934
1.1726557870
1.1791400787
1.1854552342
1.1744758160
1.1769286674
1.1734864629
1.1732981950
1.1766350086
1.1761607575
1.1751172385
1.1733653339
1.1795376929
1.1727110492
1.1748567555
1.1739748089
1.1734531665
1.1726365310
1.1727680058
1.1783977022
1.1739310730
1.1777510346
1.1731366638
1.1733283767
1.1711331874
1.1746241033
1.1793472477
1.1720996666
1.1885547657
1.1911648293
1.1711344419
1.1708650071
1.1853583606
1.1749641174
1.1814476957
1.1863033297
1.1721274426
1.1714190971
1.1708384230
1.1923801038
1.1824435813
1.1797365432
1.1896700960
1.1877029038
1.1904017131
1.1763872482
1.1768644447
1.1731766058
1.1917526176
1.1733643370
1.1712908375
1.1908106293
1.1713536699
1.1752945787
1.1801046300
1.1725506473
1.1895344382
1.1918288830
1.1712295663
1.1706441860
1.1865685904
1.1741222519
1.1827816271
1.1874723990
1.1716718054
1.1717511522
1.1709668111
1.1928077952
1.1837728720
1.1810922335
1.1904795024
1.1887421242
1.1908329506
1.1771371883
1.1761033332
1.1737447972
1.1924394398
1.1726976426
1.1710270539
1.1911718673
1.1845647141
1.1721504120
1.1787690432
1.1739112624
1.1800838494
1.1723522617
1.1740306250
1.1728101276
1.1904718794
1.1904688729
1.1879251084
1.1723883183
1.1881628468
1.1825854851
1.1770884578
1.1727078794
1.1782058823
1.1820410621
1.1731913037
1.1794477679
1.1730207085
1.1840904669
1.1730154091
1.1850644705
1.1764897262
1.1750274728
1.1849690836
1.1754112028
1.1854798996
1.1722553802
1.1780155064
1.1744187813
1.1792560933
1.1721367780
1.1734742188
1.1728440970
1.1907429777
1.1906774469
1.1886427000
1.1722159327
1.1876787864
1.1818016812
1.1762170841
1.1729713840
1.1791378084
1.1830605766
1.1735038061
1.1805285530
1.1728697396
1.1726542784
1.1773198194
1.1757232161
1.1842909558
1.1746793059
1.1761828599
1.1704515876
1.1725622732
1.1718523883
1.1758739042
1.1749630755
1.1739947804
1.1727314649
1.1881835084
1.1713007837
1.1713848746
1.1719919858
1.1713022509
1.1764846611
1.1859217724
1.1720987482
1.1756644309
1.1768636515
1.1744785956
1.1781427420
1.1744530268
1.1900449002
1.1715005543
1.1708375515
1.1735287539
1.1705184155
1.1721004042
1.1712761166
1.1718558351
1.1920063494
1.1774569274
1.1712893547
1.1820468064
1.1773627832
1.1771095395
1.1698635251
1.1701725058
1.1744772122
1.1724439208
1.1701501289
1.1721262981
1.1708635964
1.1699463044
1.1908079161
1.1793453065
1.1733632246
1.1730990285
1.1706350668
1.1754692075
1.1701453745
1.1722280842
1.1712631215
1.1718077640
1.1766450907
1.1758806401
1.1746811492
1.1720083234
1.1891698044
1.1711336614
1.1709222125
1.1717188446
1.1757052177
1.1870959527
1.1717076300
1.1748702818
1.1779005547
1.1779012282
1.1735488227
1.1904769451
1.1712256482
1.1708017984
1.1729960601
1.1708543118
1.1717355540
1.1719928697
1.1924374100
1.1765300106
1.1734934357
1.1716564437
1.1833800305
1.1781418576
1.1699735841
1.1703924994
1.1738555823
1.1730235803
1.1702254680
1.1726964243
1.1710252354
1.1697282604
1.1914621615
1.1806957702
1.1741210351
1.1725881960
1.1878261604
1.1725092269
1.1697834141
1.1693199057
1.1722129976
1.1846774454
1.1899886348
1.1734515014
1.1876778821
1.1735871985
1.1741558365
1.1760643416
1.1802584115
1.1689997975
1.1904493224
1.1904675966
1.1896920544
1.1723110183
1.1860892768
1.1855528194
1.1691688503
1.1727077766
1.1894502213
1.1715309983
1.1697547933
1.1845639371
1.1884214099
1.1807451706
1.1807444607
1.1830035711
1.1778142147
1.1745873070
1.1694131808
1.1840326780
1.1813422192
1.1916143198
1.1906089939
1.1776680944
1.1741834208
1.1900626196
1.1890964819
1.1803268492
1.1904020537
1.1712110627
1.1888162265
1.1723651780
1.1694201954
1.1695353142
1.1724811693
1.1895919815
1.1739719401
1.1886417016
1.1742856476
1.1769095135
1.1813417017
1.1690779208
1.1910892131
1.1906760817
1.1901269069
1.1723492828
1.1866146774
1.1867330717
1.1690291702
1.1730305175
1.1900614535
1.1708412982
1.1700916708
1.1852213068
1.1879240660
1.1818011088
1.1857606364
1.1843034289
1.1787673239
1.1752878069
1.1693022700
1.1849683267
1.1920280466
1.1907415282
1.1888362508
1.1789866313
1.1732091297
1.1901838525
1.1894513022
1.1816718894
1.1717394014
1.1803684359
1.1904471149
1.1855521058
1.1764842344
1.1916122316
1.1713839110
1.1769117533
1.1789852578
1.1834832939
1.1756290917
1.1876719079
1.1909951868
1.1856835663
1.1703169938
1.1846353579
1.1738095217
1.1905107193
1.1816707923
1.1828487704
1.1738086079
1.1737434802
1.1744524209
1.1874295049
1.1715027791
1.1712291410
1.1767775919
1.1771361730
1.1703156173
1.1852269746
1.1869875881
1.1704504582
1.1717491621
1.1778997391
1.1905004696
1.1761840921
1.1901092232
1.1727306663
1.1727890633
1.1777152007
1.1787034035
1.1707504195
1.1786645230
1.1895978991
1.1713445462
1.1698683505
1.1761024232
1.1712427410
1.1696875827
1.1807675374
1.1893669575
1.1712415648
1.1705697221
1.1878249785
1.1811146903
1.1723293971
1.1889888616
1.1896900140
1.1709547090
1.1814861185
1.1910870204
1.1867322293
1.1775886736
1.1920260455
1.1720074035
1.1777146786
1.1729075699
1.1803256131
1.1826907473
1.1748969882
1.1871715801
1.1913918949
1.1850116177
1.1858447014
1.1909960613
1.1830026559
1.1838696973
1.1751583611
1.1731732943
1.1754346841
1.1882018778
1.1707206779
1.1704656571
1.1701488746
1.1861115549
1.1880435631
1.1708640702
1.1790579694
1.1912784253
1.1904701050
1.1735480794
1.1696888732
1.1775889868
1.1778658039
1.1794491086
1.1892143294
1.1701441029
1.1698518601
1.1820817703
1.1901829063
1.1708441320
1.1699450173
1.1888145842
1.1802699018
1.1718087086
1.1898018173
1.1901248841
1.1722248252
1.1843026640