<VTKFile type="UnstructuredGrid" version="0.1">
	<UnstructuredGrid>
		<Piece NumberOfPoints="1862" NumberOfCells="3498">
			<CellData>
				<DataArray type="Int32" Name="boundary" NumberOfComponents="1" Format="ascii">
1
1
1
1
1
1
1
1
1
1
1
1
1
1
1
1
-1
1
1
-1
1
1
1
1
1
1
1
1
1
1
1
1
1
-1
1
1
1
1
1
1
1
1
1
1
1
1
1
1
1
1
-1
1
1
1
1
1
1
1
1
1
1
-1
1
1
1
1
1
1
1
1
1
1
1
1
1
1
1
1
1
1
1
1
1
1
1
1
1
1
1
1
1
1
1
1
1
1
1
1
1
1
1
1
1
1
1
1
1
1
1
1
1
1
1
1
1
1
1
1
1
1
1
1
1
-1
1
1
1
1
1
1
1
1
1
1
1
1
1
1
1
1
1
1
1
1
1
1
1
1
1
1
1
-1
1
-1
-1
1
1
1
1
1
1
1
1
1
1
1
1
1
-1
1
-1
1
1
1
1
-1
1
1
1
1
1
1
1
1
-1
-1
1
1
1
1
1
-1
1
1
1
1
1
1
1
1
-1
1
1
1
1
1
1
1
1
1
1
1
1
1
1
1
1
1
1
1
1
1
1
1
1
1
1
1
1
1
1
1
1
-1
1
1
1
1
1
1
1
1
1
1
1
1
1
1
1
1
1
1
1
1
1
1
1
1
1
1
1
1
1
1
1
1
1
1
1
1
1
1
1
1
1
1
1
1
1
1
1
-1
1
1
1
1
1
1
1
1
1
1
1
1
1
1
1
1
1
1
1
1
1
1
1
1
1
1
1
1
1
1
1
1
1
1
1
1
1
1
1
1
1
1
1
1
1
1
1
1
1
1
-1
1
1
1
1
1
1
1
1
1
1
1
1
1
1
1
1
1
1
1
1
1
1
1
1
1
1
1
1
1
1
1
1
1
1
1
1
1
1
1
1
1
1
1
1
1
1
1
1
1
1
1
1
1
1
1
1
1
-1
1
1
1
1
1
1
1
1
1
1
1
1
1
1
1
1
1
1
1
1
1
1
1
1
1
1
1
1
1
1
1
1
1
1
1
1
1
1
1
1
1
1
1
1
1
1
1
1
1
1
1
1
1
1
1
1
1
1
1
1
1
1
1
1
1
1
1
1
1
1
1
1
1
1
1
1
1
1
1
1
1
1
1
1
1
1
1
1
1
1
1
1
1
1
1
1
1
1
1
1
1
1
1
1
1
1
1
1
1
1
1
1
1
1
1
1
1
1
1
1
1
1
1
1
1
1
1
1
1
1
1
1
-1
1
1
1
1
1
1
1
1
1
1
1
1
1
1
1
1
1
1
1
-1
1
1
1
1
1
1
1
1
1
1
1
1
1
1
1
1
1
1
1
1
1
1
1
1
1
1
1
1
1
1
1
1
1
1
1
1
1
1
1
1
1
1
1
1
1
1
1
1
1
1
1
1
1
-1
1
1
1
1
1
1
1
1
1
1
1
1
1
1
1
1
1
1
1
1
1
1
1
-1
1
1
1
1
1
1
1
1
1
1
1
1
1
1
1
1
1
1
1
-1
1
1
1
-1
1
1
1
1
1
1
1
1
1
1
1
1
1
1
1
1
1
1
1
1
1
1
1
1
1
-1
1
1
1
1
1
1
1
-1
1
1
1
1
1
1
1
1
1
1
1
1
1
1
1
1
1
1
1
1
1
1
1
1
1
1
-1
1
1
1
1
1
1
1
-1
1
1
1
1
1
1
-1
1
1
1
1
1
1
1
1
1
1
1
1
1
1
1
1
1
1
1
1
1
1
1
1
1
1
1
1
1
1
1
1
1
1
1
1
1
1
-1
1
1
1
1
1
-1
1
1
1
1
1
1
1
-1
1
1
1
1
1
1
1
1
1
1
1
1
1
-1
1
1
1
1
1
1
1
1
1
1
1
1
1
1
1
1
1
1
1
1
1
1
1
1
1
1
1
1
1
1
1
1
1
1
1
1
1
1
1
1
1
1
1
1
1
1
1
1
1
1
1
1
1
-1
1
1
1
1
1
1
1
1
1
1
1
1
1
1
1
1
1
1
1
-1
1
1
1
1
1
1
1
1
1
-1
1
1
1
1
1
1
1
1
1
1
1
1
1
1
1
1
1
1
1
1
1
1
1
1
1
1
1
1
1
-1
1
-1
1
1
1
1
1
1
1
1
1
1
1
1
1
1
1
1
1
1
1
1
1
1
1
1
1
1
1
-1
1
1
1
-1
1
1
1
1
1
1
1
1
1
1
1
1
1
1
1
1
1
1
1
1
1
1
1
1
1
1
1
1
-1
1
1
1
1
1
1
1
1
1
1
1
1
1
1
1
1
1
1
1
1
1
1
1
1
1
-1
1
1
1
1
1
1
1
1
1
1
1
1
1
1
1
1
1
1
1
1
1
1
1
-1
1
1
1
1
1
1
-1
1
1
1
1
1
1
1
1
1
1
1
-1
1
1
1
1
1
1
1
1
1
1
1
1
1
1
1
1
1
1
1
1
-1
1
1
1
1
1
1
1
1
1
1
1
-1
1
1
1
1
1
1
1
1
1
1
1
1
1
1
1
1
1
1
1
1
1
-1
1
1
1
1
1
1
1
1
1
-1
-1
1
-1
1
-1
1
1
1
1
1
1
1
1
1
1
1
-1
1
1
1
1
1
-1
-1
1
1
1
1
1
1
-1
1
1
1
1
1
-1
-1
-1
1
1
1
1
1
1
1
1
1
1
1
1
-1
-1
1
1
-1
1
1
1
1
1
-1
1
1
1
-1
1
-1
1
1
1
1
1
1
1
-1
1
1
1
1
1
1
1
-1
1
1
-1
1
1
1
1
1
1
1
1
1
1
1
1
1
1
1
-1
1
1
1
1
1
1
1
1
1
1
1
1
1
1
1
1
1
1
1
1
1
1
1
1
1
1
1
1
1
1
1
1
1
1
1
1
-1
1
1
1
1
1
1
-1
1
1
1
-1
1
1
1
1
1
1
1
1
1
1
1
-1
1
1
1
1
1
1
1
1
1
1
1
1
1
1
1
1
1
1
1
1
1
1
1
1
1
1
1
1
1
1
1
1
1
1
1
1
1
1
1
1
-1
-1
1
1
1
1
1
1
1
1
1
1
1
1
1
-1
1
1
1
1
1
1
1
1
1
1
1
1
1
1
1
1
1
1
1
1
1
1
1
1
1
1
1
1
1
1
1
1
1
1
1
1
1
1
1
1
1
1
1
1
1
1
1
1
1
1
1
1
1
1
1
1
1
1
1
1
1
1
1
1
1
1
1
1
1
1
1
1
-1
-1
1
1
1
1
1
1
1
1
-1
1
1
1
1
1
1
1
1
1
1
1
1
1
1
1
1
1
1
1
1
1
1
1
-1
1
1
1
1
1
1
1
1
1
1
1
1
1
1
1
1
-1
1
1
1
1
1
1
1
1
1
1
1
1
1
1
1
1
1
1
1
1
1
1
1
1
1
1
1
1
1
1
1
1
1
1
1
1
1
1
1
1
1
1
1
1
1
1
1
1
1
1
1
1
1
1
1
1
1
1
1
1
1
1
1
1
1
1
1
1
1
1
1
1
1
1
1
1
1
1
1
1
1
1
1
1
1
1
1
1
1
1
-1
-1
1
1
1
1
1
-1
1
1
1
1
1
1
1
1
1
1
1
1
-1
1
1
1
1
1
1
1
1
1
1
1
1
1
1
1
1
1
1
1
1
1
1
1
1
1
1
1
1
1
1
1
1
1
1
1
1
1
1
1
1
1
1
1
1
1
1
1
1
1
1
1
1
1
-1
1
-1
1
1
1
1
1
1
1
1
1
1
1
1
1
1
1
1
1
1
-1
1
1
1
1
1
1
1
1
1
1
1
1
1
1
1
1
1
1
1
1
1
1
1
1
1
1
1
1
1
1
1
1
1
1
1
1
1
1
1
1
1
1
1
1
1
1
1
1
1
1
1
1
1
1
1
1
1
1
1
1
1
1
1
1
1
1
1
1
1
1
-1
1
1
1
1
1
1
1
1
1
1
-1
1
1
1
1
1
1
1
1
1
1
1
1
1
1
1
1
1
1
1
1
1
1
1
1
1
1
1
1
1
1
1
1
1
1
1
1
1
-1
1
1
1
1
1
1
1
1
1
1
1
1
1
1
1
1
1
1
1
1
1
1
1
1
1
1
1
1
1
1
1
1
1
1
1
1
1
1
1
1
1
1
1
1
1
1
1
1
1
1
1
1
1
1
1
1
1
1
1
1
1
1
1
1
1
1
1
1
1
1
1
1
1
1
1
1
1
1
1
1
1
-1
1
1
1
1
1
1
1
1
1
1
1
1
1
1
1
1
1
1
1
1
1
1
1
1
1
1
1
1
1
1
1
1
1
1
1
1
1
1
1
1
1
1
1
1
1
1
1
1
1
1
1
1
1
1
1
1
1
1
1
1
1
1
1
1
1
1
1
1
1
1
1
1
1
1
1
1
1
1
1
1
1
1
1
1
1
1
1
1
1
1
1
1
1
1
1
1
1
1
1
1
1
1
1
1
1
1
1
1
1
1
1
1
1
1
1
1
1
1
1
1
1
1
1
-1
1
1
1
1
1
1
1
1
1
1
1
1
1
1
1
1
1
1
1
1
1
1
1
1
1
1
1
1
1
1
1
1
1
1
1
1
1
1
1
1
1
1
1
1
1
1
1
1
1
1
1
1
1
1
1
1
1
1
1
1
1
1
1
1
1
1
1
1
1
1
1
1
1
1
1
1
1
1
1
1
1
-1
1
1
1
1
1
1
1
-1
1
1
1
1
1
1
1
1
1
1
1
1
1
1
1
1
1
1
1
1
1
1
1
1
1
1
1
1
1
1
1
1
1
1
1
1
1
-1
1
1
1
1
1
1
1
1
1
1
1
1
1
1
1
1
1
1
1
1
1
-1
1
1
1
1
1
1
1
1
1
1
1
1
-1
-1
1
1
1
1
1
1
1
1
1
1
1
1
1
1
1
-1
-1
1
-1
1
1
1
1
1
1
1
1
1
-1
1
1
1
1
1
1
-1
1
1
1
1
1
1
1
1
1
1
-1
1
1
1
1
-1
1
-1
1
1
1
1
1
1
1
-1
1
1
1
-1
1
1
1
-1
1
-1
-1
1
1
-1
-1
1
1
1
-1
1
1
1
-1
1
1
1
1
1
1
1
1
1
-1
1
1
1
1
1
1
-1
1
1
1
1
1
1
1
1
1
1
1
1
1
1
1
1
1
1
1
1
1
1
1
1
1
1
1
-1
1
1
-1
1
1
1
1
1
1
1
1
1
1
1
1
1
1
1
1
1
1
-1
1
1
-1
1
1
1
1
1
1
1
1
1
1
1
-1
1
1
-1
1
1
1
1
1
1
1
1
1
1
1
-1
-1
1
1
1
1
1
1
1
1
1
1
1
1
-1
1
1
1
1
1
1
1
1
1
1
1
1
1
1
1
1
1
-1
1
1
1
1
1
1
1
1
1
1
1
1
1
1
1
1
1
-1
1
1
1
1
1
1
1
1
1
1
1
1
1
1
1
1
1
1
1
1
1
1
1
1
1
1
1
1
1
1
1
1
1
1
1
1
1
1
1
1
-1
1
1
1
1
1
1
1
1
1
1
1
1
1
1
1
1
1
1
1
1
1
1
1
1
1
1
1
1
1
1
1
1
1
1
1
1
1
1
1
1
1
1
1
1
1
-1
1
1
1
1
1
1
1
1
1
1
1
1
1
1
1
1
1
1
1
1
1
1
1
1
1
1
1
1
1
1
1
1
1
1
1
1
1
1
1
1
1
1
1
1
1
1
1
-1
1
1
1
1
1
1
1
1
1
1
-1
1
1
1
1
1
1
1
1
1
1
1
1
1
1
1
-1
1
1
-1
1
1
1
1
1
1
1
1
1
1
1
1
1
1
1
1
1
1
1
1
1
1
1
-1
1
1
1
1
1
1
1
1
1
1
1
1
1
1
1
1
1
1
1
1
1
1
1
1
1
1
1
1
1
1
1
1
1
1
1
-1
1
1
1
1
1
1
1
1
1
1
1
1
1
1
1
1
1
1
1
1
1
1
1
1
1
1
1
1
1
1
1
1
1
1
1
1
1
1
1
1
1
1
1
1
1
1
1
1
1
1
1
1
1
1
1
1
1
1
1
1
1
1
1
1
1
1
1
1
1
1
1
1
1
1
1
1
-1
1
1
1
1
1
1
1
1
1
1
1
1
1
1
1
1
1
1
1
1
1
1
1
1
1
1
1
1
1
1
1
1
1
1
1
1
1
1
1
-1
1
1
1
1
1
1
1
1
1
1
1
1
-1
-1
1
1
1
1
1
1
1
1
1
1
1
1
1
1
1
1
1
1
1
1
1
1
1
1
1
1
1
1
1
1
1
1
1
1
1
1
1
1
1
1
1
1
1
1
1
1
1
1
1
1
1
1
1
1
1
1
1
1
1
1
1
1
1
1
1
1
1
1
1
1
1
1
1
1
1
1
1
1
1
1
1
1
1
1
1
1
1
1
1
1
1
1
1
1
1
1
1
1
1
1
1
-1
1
-1
1
1
1
1
1
1
1
-1
-1
-1
-1
1
1
1
1
1
1
1
1
1
1
1
1
1
1
1
1
1
1
1
1
1
1
1
1
1
1
1
1
-1
-1
1
1
1
1
1
1
1
1
1
1
1
1
1
1
1
1
1
1
-1
1
1
1
1
1
1
1
-1
-1
1
-1
-1
1
1
-1
1
1
1
1
1
1
1
-1
1
-1
1
1
1
1
1
1
1
1
1
1
1
1
1
1
1
1
1
1
1
1
1
1
1
1
1
1
1
-1
-1
1
1
1
-1
-1
1
1
1
1
-1
1
1
-1
1
-1
1
1
1
1
1
-1
1
1
1
-1
1
1
1
1
1
1
1
1
1
1
1
1
1
1
1
1
1
1
1
1
1
1
1
1
1
1
1
-1
1
1
1
1
1
1
-1
1
1
1
1
1
1
1
1
1
1
1
1
1
1
1
1
1
1
1
1
1
1
1
1
1
1
1
1
1
-1
1
-1
1
1
1
1
1
1
1
-1
1
1
1
1
1
1
1
1
1
1
1
-1
1
1
1
1
1
1
1
1
1
-1
1
1
1
1
1
1
1
-1
1
1
1
1
1
1
1
-1
1
1
1
1
1
1
1
1
1
1
1
1
1
1
1
1
1
1
1
-1
1
-1
1
1
1
1
1
-1
1
1
1
1
1
1
1
1
1
1
1
1
1
1
1
1
1
1
1
1
1
1
1
1
1
-1
1
-1
1
1
1
1
1
1
1
1
1
-1
1
1
1
1
1
-1
1
1
1
1
1
1
1
1
1
1
1
1
1
1
1
-1
1
1
1
1
1
1
1
1
-1
1
1
1
1
1
1
1
1
1
1
1
1
1
1
1
1
1
1
1
1
1
1
1
1
1
1
1
1
1
1
-1
1
1
1
1
1
1
1
1
1
1
1
1
1
1
1
1
-1
1
1
1
1
1
1
1
1
-1
1
1
1
1
1
1
1
1
1
-1
1
1
1
1
1
-1
1
1
1
1
1
1
1
1
1
1
1
1
1
1
1
1
1
1
1
-1
1
1
1
1
1
1
-1
1
1
1
1
1
1
1
1
-1
1
1
1
1
1
1
1
1
1
1
1
1
1
1
-1
1
1
-1
1
1
1
-1
1
1
1
1
1
1
1
1
1
1
1
1
1
1
1
1
-1
1
1
1
1
1
1
1
1
1
1
-1
1
-1
1
1
1
1
1
1
-1
1
1
1
1
1
1
1
1
1
1
1
1
1
1
1
1
1
1
1
1
1
1
1
1
1
1
1
-1
-1
1
1
1
1
1
1
-1
1
1
1
1
1
1
1
1
1
1
1
1
1
-1
1
1
1
1
1
1
1
-1
1
1
1
1
1
1
1
1
1
1
1
1
1
1
1
1
1
1
1
1
1
1
1
1
1
1
1
-1
1
1
1
1
1
1
1
1
1
1
-1
1
1
-1
1
1
1
1
1
1
1
1
1
1
1
1
1
1
1
1
1
1
1
1
1
1
1
1
1
1
1
1
1
-1
1
1
1
1
1
1
1
-1
1
1
1
1
1
1
1
-1
1
1
1
1
-1
1
1
1
1
1
1
1
1
1
1
1
-1
1
-1
1
1
1
-1
1
				</DataArray>
				<DataArray type="Float64" Name="h" NumberOfComponents="1" Format="ascii">
1.1977944908
1.1977838369
1.2003848072
1.1969036426
1.2011593651
1.2004881687
1.1987978141
1.1956099002
1.1986128324
1.1927482901
1.1959981730
1.1993486462
1.1957742700
1.1943570956
1.1961022742
1.1934110433
1.1976614511
1.1932767565
1.1975164672
1.1948100467
1.2018325101
1.1966252473
1.1999966440
1.2027574265
1.1965011419
1.1927554376
1.1988972115
1.2071534990
1.2018590133
1.1931778668
1.1936616403
1.2002533680
1.1962594889
1.2007282617
1.2070571965
1.2036444042
1.2045243444
1.2008792696
1.2070754594
1.2028295366
1.2020593470
1.2072519389
1.1992456231
1.2028024557
1.2038116654
1.2057109776
1.2011357701
1.2086143974
1.2170222874
1.2168042948
1.2035274321
1.2046030805
1.2030021108
1.2118750114
1.2063157554
1.1999643585
1.2057955131
1.2105207021
1.2114340145
1.2110112470
1.2129341954
1.2124167956
1.2162844866
1.2047970326
1.2039624362
1.2096714721
1.2164898590
1.2159750459
1.2122271392
1.2116280817
1.2112774895
1.2067963145
1.2015337258
1.2127791999
1.2119432444
1.2092507156
1.2106570933
1.2129225032
1.2094151823
1.2085513355
1.2140846001
1.2108371483
1.2181718221
1.2155494789
1.2068399598
1.2107566628
1.2146661731
1.2150634564
1.2136237643
1.2184422755
1.2150128678
1.2094038650
1.2134412130
1.2185589676
1.2120439597
1.2107704580
1.2145657370
1.2070943826
1.2084397918
1.2146357428
1.2180341155
1.2144242951
1.2130947404
1.2096562003
1.1901158049
1.2163158815
1.2131832495
1.2174270655
1.2129963981
1.2119862960
1.2181498651
1.2181754425
1.2145440901
1.2154444273
1.2138357978
1.2162998722
1.2129991367
1.1914517155
1.2163028800
1.2144668920
1.1901730607
1.2143498219
1.2117307236
1.1874922533
1.2149641044
1.2171315560
1.2137289208
1.1875333447
1.2160301520
1.2165915695
1.2158061763
1.2131893440
1.2143932679
1.2163882544
1.1905907839
1.2159217303
1.1908228205
1.2163467507
1.2153656537
1.1943712216
1.1878533477
1.1885350113
1.2158609072
1.1969309766
1.2118491915
1.2153760117
1.1922995099
1.2168128851
1.1884565842
1.2165277632
1.1896207233
1.2164364531
1.2163007275
1.2162884617
1.2148934679
1.2164505750
1.2166053641
1.1889126445
1.2164009217
1.1857381472
1.1954367030
1.2166572755
1.1911270829
1.1867392465
1.1884222969
1.2168981885
1.1995408585
1.1931956843
1.1857983545
1.2162768011
1.2166304771
1.1851955499
1.2163778499
1.1887417294
1.2006131191
1.2163093635
1.1979577318
1.2173159535
1.2164356381
1.1868112154
1.2166870273
1.2033009419
1.1857112052
1.2129066595
1.1847037809
1.1844817964
1.2022047928
1.2163381078
1.1855138303
1.1848721361
1.2059715392
1.2165332535
1.1850440346
1.2048936623
1.2163149671
1.2174132338
1.1874555807
1.2086161519
1.2074998427
1.2163029759
1.1847372194
1.2142450983
1.1846706974
1.2163376221
1.2112684257
1.1861005324
1.1929205195
1.1893040202
1.2100822923
1.1975536428
1.2055407082
1.1850419189
1.1869575618
1.1863612732
1.1910070033
1.2082336467
1.1950934253
1.1867693516
1.2028383518
1.1855624188
1.2126965509
1.2193779857
1.2001541920
1.2191284387
1.2154521226
1.2172090928
1.2188482438
1.2178423595
1.2139230990
1.2191964969
1.2165990246
1.2193652000
1.2167733192
1.2165909238
1.2178110509
1.2186351153
1.2066490161
1.1933759144
1.1857996728
1.1980701069
1.2061617100
1.1896446741
1.1865883244
1.1985461490
1.1899146345
1.1937583778
1.1866348283
1.2039032852
1.1913998685
1.1871839316
1.1956081718
1.2033985065
1.1873545747
1.2094068364
1.2089544072
1.1868653035
1.1960365419
1.1917337912
1.1863619626
1.2197591871
1.2006858329
1.2165212323
1.2189916240
1.2203787900
1.2166943019
1.2182983555
1.2181563288
1.2136459839
1.2168630772
1.2207178965
1.2201440868
1.2011887162
1.2197024489
1.2187032209
1.2194145340
1.2148992297
1.2178918399
1.2198043059
1.2206771084
1.2152881681
1.2193784924
1.2173426423
1.2176146768
1.2189172592
1.2205302180
1.2198395268
1.2178304114
1.1937031546
1.1870570629
1.1869871361
1.1941843436
1.2073224129
1.1899462348
1.1903044275
1.1984704823
1.2067499777
1.1990386731
1.1916892764
1.1875234278
1.1868654587
1.1872789041
1.1921162496
1.2044914977
1.2096437178
1.2101781111
1.1959767878
1.2039006225
1.1965054272
1.1877110908
1.2175590900
1.2199250476
1.2201922551
1.2178013854
1.2145587660
1.2216069656
1.2210480256
1.2011273968
1.2210847331
1.2194069693
1.2017178516
1.2217002962
1.2177911555
1.2221546948
1.2195418308
1.2190162651
1.2189988580
1.2210798997
1.2187265356
1.2206120834
1.2211948061
1.2207517846
1.2202774032
1.2184435799
1.2158299843
1.2220619809
1.2163066882
1.2219944118
1.1944791672
1.2244879922
1.1987584533
1.2072963136
1.1994321907
1.1874010703
1.2079575416
1.1901184674
1.1938951852
1.1905592890
1.1872808205
1.2269053585
1.2218302169
1.2102918159
1.2266595212
1.1923725433
1.1880107955
1.2273465272
1.1962117030
1.2244116357
1.2043446884
1.1968479211
1.2282437439
1.2273428179
1.2263357995
1.1872784241
1.2050325071
1.2109061226
1.1918533025
1.2176857687
1.2211146109
1.2248269974
1.1875798338
1.2270708309
1.2289488558
1.1877667094
1.2209114770
1.2224141817
1.2230742851
1.2210050903
1.1865040764
1.2232001638
1.2185511231
1.2154279088
1.2225679730
1.2190696351
1.2014847156
1.2236628185
1.2021771417
1.2188777780
1.2211925059
1.2213889549
1.1970749832
1.2198468333
1.2167077855
1.2219344817
1.2137697087
1.2218461338
1.2235033896
1.1855579195
1.1892177717
1.1914197837
1.2070783664
1.2201137004
1.2222607777
1.2036627263
1.2226258757
1.2104683303
1.2201108351
1.2235560949
1.2172917391
1.2201787033
1.2003008211
1.2223731681
1.2199012194
1.2256423364
1.2226533881
1.1946408888
1.2262903036
1.2255522310
1.1997327110
1.2271465566
1.2209152588
1.2182849522
1.2152000677
1.1906676720
1.2272665376
1.2274044727
1.2246176272
1.2234888761
1.1876315140
1.2289100135
1.2085462951
1.2234777682
1.2284806827
1.2279718621
1.2287150554
1.2258886402
1.2258912771
1.2320562850
1.2257338885
1.2244133950
1.2187678971
1.2233527052
1.2290542030
1.1924913437
1.2309234126
1.2222983184
1.1970718907
1.2224425069
1.2259007419
1.2252715260
1.2303774261
1.2291647550
1.2223554997
1.1875789058
1.2190990477
1.2055231172
1.2152016351
1.2305558239
1.2304612760
1.2268231696
1.2311400475
1.1881864780
1.2115877853
1.1946690820
1.2206092211
1.2025682203
1.2238413888
1.2236760688
1.2199279511
1.2094702141
1.1906062305
1.2226462240
1.1999513166
1.2241294481
1.2059642178
1.2162439637
1.2224558786
1.2332354571
1.1990980620
1.1876928368
1.1862898284
1.1866014849
1.2122151750
1.1924572338
1.2217178874
1.2345399439
1.2336216452
1.2238742846
1.1875867235
1.2232876701
1.1883551054
1.2242999339
1.2182278979
1.2345203333
1.1881809120
1.1855584853
1.1940803292
1.1971872837
1.2350826947
1.2241211548
1.1853869341
1.2317846645
1.2328960454
1.1958324877
1.1914202474
1.2070791818
1.2028979502
1.2213379277
1.1877240573
1.2152936811
1.2267156358
1.1875863660
1.2090890069
1.2298017786
1.1999518428
1.2191120007
1.1876918488
1.2302201542
1.2211983239
1.1873921385
1.1990469927
1.2090914440
1.2252312793
1.2239111533
1.2253565042
1.1938459507
1.2317228976
1.1821356297
1.2276178614
1.2160734042
1.2082688617
1.2299152717
1.1946696847
1.2281378973
1.1899551350
1.1906065480
1.2076037817
1.1881801343
1.1971877583
1.1877231271
1.2160741534
1.2122181221
1.2040480036
1.1902157339
1.1875675960
1.1968726023
1.1963099135
1.1839926806
1.2059658843
1.2004450794
1.1873779222
1.2304908634
1.1934265304
1.1917116069
1.2143286891
1.1877520155
1.2174062653
1.2114666568
1.1851133209
1.2305655270
1.2300821269
1.2050898250
1.1837230420
1.2304664984
1.1924578566
1.2110479904
1.2257374968
1.2028988870
1.2236786834
1.2286662064
1.2223675851
1.2019956800
1.2264038155
1.2321304448
1.2282362992
1.2209189436
1.1871005242
1.2170017230
1.2219273144
1.2298037066
1.2054164720
1.1962043993
1.2252736797
1.2317863794
1.1793356271
1.2245014353
1.1895652080
1.2244234466
1.2256447313
1.2224456599
1.1801460511
1.2235010711
1.2065326644
1.1928230883
1.2111749654
1.1837176877
1.2191029271
1.2087044532
1.1873686041
1.2342164586
1.2025183851
1.2128455656
1.2021871566
1.2335765466
1.1936090603
1.2246198532
1.1891257878
1.2005338099
1.2342893919
1.2255576366
1.1712140953
1.1967304862
1.1882238841
1.2337635701
1.1769700883
1.2219278071
1.1913760567
1.2288862676
1.1899555465
1.2019965510
1.2082707753
1.1938466088
1.2295499771
1.2202529614
1.1873915899
1.1873915928
1.1990889627
1.1717763597
1.2361401006
1.1877515560
1.1843576961
1.2005339316
1.1759659895
1.1885596393
1.2114689449
1.1990475624
1.2050912102
1.1917122852
1.2341889253
1.2367575860
1.2322538891
1.2268221351
1.1875671549
1.1966974084
1.2042424042
1.2067387648
1.2336025856
1.2329774971
1.2143290274
1.1929010058
1.2345470656
1.1689862424
1.1971653718
1.1870768387
1.1898916301
1.1649477971
1.2034317847
1.2100590079
1.1963104543
1.2328638359
1.1943659954
1.1873081362
1.1883822315
1.2306949541
1.2352817134
1.2371224259
1.2313078017
1.1672534812
1.2002155283
1.1874352569
1.1919113137
1.2364570262
1.2370312542
1.2076042172
1.1926923436
1.2041754506
1.1801464528
1.2344367981
1.1785028621
1.1828445278
1.2394260058
1.2381921756
1.1991067290
1.1954793827
1.2354161572
1.1916203076
1.1887584729
1.1736969022
1.2369644158
1.2386921426
1.2379187225
1.1879937086
1.1846252234
1.1705605984
1.1751001843
1.1790765912
1.2365517524
1.2377692662
1.2335668159
1.2351535566
1.1640756668
1.2388143556
1.2398315833
1.1711466786
1.2367551284
1.2354630987
1.1712132519
1.2405028713
1.1934267942
1.2380325536
1.1835332140
1.1857692639
1.2404071667
1.1769696907
1.2393563105
1.2383761046
1.1837232593
1.2372160614
1.1809314589
1.1783701237
1.2363785150
1.2362548952
1.1847310267
1.1989591389
1.1992669189
1.1992578035
1.1989461821
1.1985365207
1.1993511020
1.1960020360
1.1967590478
1.2010551044
1.2004933920
1.2011532168
1.2010470823
1.1986050051
1.1961095658
1.1988030569
1.1938845895
1.1967541629
1.1985326681
1.1954320448
1.1932793539
1.1969020718
1.2003812497
1.1975310613
1.1931798422
1.1937375289
1.1992110941
1.1956036879
1.1927530542
1.1965009539
1.1927464614
1.1957043620
1.1957667302
1.2018593328
1.1947496514
1.1984650694
1.1938819427
1.1936619700
1.1954253953
1.2007277645
1.1962693569
1.2002715085
1.1973253185
1.2028330464
1.2063225819
1.1976629813
1.1934098885
1.1992684875
1.2070960820
1.1992100385
1.1937352721
1.2020706689
1.1943553491
1.1948122394
1.2018568026
1.1999741324
1.2088028323
1.1966125954
1.2044526969
1.1956953692
1.2018311675
1.1984471878
1.1982441336
1.2084135156
1.2086154425
1.1947464173
1.2038168958
1.2035275930
1.2011620384
1.2071362071
1.2027527847
1.2018439921
1.2058082486
1.2049250352
1.1988783215
1.2055392772
1.1930061083
1.2062993329
1.2074892670
1.2072428456
1.1973131083
1.2030206152
1.2088021765
1.2173230068
1.2157749575
1.1982236693
1.2044505566
1.2055740851
1.2084066200
1.2036378556
1.2039887895
1.2008505403
1.2079930440
1.2070559745
1.2162787848
1.2159645417
1.2084687102
1.2045229067
1.2048050062
1.2074866105
1.2099546544
1.2104800877
1.2027776545
1.2127721752
1.2108911916
1.2067993629
1.2015587458
1.2114226707
1.2042906261
1.2037023798
1.2055369389
1.2132016741
1.2072416786
1.2072498421
1.2106568945
1.2112768296
1.2127530050
1.2119397547
1.2048975909
1.2019871793
1.2122272777
1.2061187401
1.1930045119
1.2116288037
1.2055710304
1.2079922891
1.2096564405
1.2084650131
1.2153507040
1.2091272310
1.2170986388
1.2170302171
1.2045937372
1.2157832126
1.2056927067
1.2108377498
1.2155380302
1.2096963690
1.2173335873
1.2168161514
1.2129338511
1.2124159749
1.2019580307
1.2136127626
1.2127582970
1.2114352483
1.2102008735
1.2108941174
1.2078356947
1.2026898071
1.2099547941
1.2061180152
1.2087606402
1.2063121850
1.2121985471
1.2114220111
1.2132014107
1.1999437363
1.2108274994
1.2119956884
1.2042665089
1.2118779244
1.2104810418
1.2110134748
1.2094172923
1.2105204159
1.2036733041
1.2134408215
1.2153605409
1.2096570305
1.2084552964
1.2096972936
1.2053312324
1.2091269390
1.2144245540
1.2168443631
1.2142656057
1.2148817232
1.2096660646
1.2180295119
1.2165025931
1.2083491155
1.2071161293
1.2138066553
1.2107779232
1.2098110658
1.2171121556
1.2146357885
1.2163044239
1.2096465939
1.2177581100
1.2108277207
1.2129945624
1.2181656172
1.2136128158
1.2119981620
1.2145419985
1.2087604506
1.2092383967
1.2185016172
1.2102021334
1.2129235897
1.2026659839
1.2148854520
1.2078219372
1.2181356066
1.2119870312
1.2121987430
1.2142660910
1.2177599778
1.2118871616
1.2138061023
1.2107472895
1.2143443245
1.2135794058
1.2083480893
1.1915540637
1.2098117423
1.2148911211
1.2068212189
1.2085341962
1.2146658831
1.2181752353
1.2140842311
1.2129948309
1.2094144940
1.2168574819
1.1901715773
1.2150724202
1.2053110579
1.2148855426
1.2131906017
1.2179368271
1.1905960459
1.2171276323
1.2141967681
1.2154101818
1.2136265661
1.2120412895
1.2185712693
1.2164770247
1.2184502083
1.2150133354
1.2164942350
1.2105709854
1.2149588959
1.2137214546
1.2185170294
1.2165911951
1.2130988861
1.2170757020
1.2182647925
1.2118905592
1.1915558967
1.2135835733
1.2160753433
1.1905907606
1.2159213471
1.2143876975
1.1901175831
1.2145700243
1.2118553925
1.2175005614
1.1885344747
1.2150049863
1.1905997216
1.2164775265
1.2154468493
1.2174332064
1.1910987545
1.2105698695
1.2154118472
1.2138437528
1.1884555863
1.2179527704
1.2158613397
1.1867016760
1.2162990445
1.2141994788
1.2153766487
1.2164966702
1.2131803375
1.1893991603
1.2103418566
1.2178129594
1.2165610763
1.2170773681
1.2160791391
1.1890313563
1.2160914557
1.2173670249
1.2150825211
1.2144747336
1.2182804891
1.2164369323
1.1914515215
1.2154575794
1.2163041344
1.1917163507
1.1896155913
1.2163011527
1.2148940478
1.1911042340
1.1867022970
1.1931932185
1.1884203026
1.2150119741
1.2164161642
1.1893995731
1.1870175508
1.2166949738
1.2169298259
1.2175146403
1.1874926094
1.2160294185
1.1954407833
1.1889145171
1.2117239674
1.2158059600
1.1909070254
1.1911210487
1.2157160030
1.2166570526
1.1875342196
1.2164007998
1.2150817830
1.1908295786
1.2163875596
1.2164292591
1.2166150779
1.2173696068
1.2163550510
1.2163460402
1.2163780218
1.1920993776
1.1895232728
1.2153650858
1.1917158812
1.2178259658
1.1890349576
1.2165606773
1.2103342913
1.2154568505
1.2162767414
1.2160071801
1.2160907613
1.2166307190
1.1887390649
1.2165281060
1.1857102021
1.2156481638
1.1889159997
1.1870186486
1.2171853227
1.2163802225
1.2164028451
1.1969206912
1.2168135132
1.1923031123
1.1868097920
1.2166958544
1.1909071882
1.2169382551
1.1863864905
1.1878550621
1.2166870717
1.2157151630
1.1979694760
1.2156986720
1.1943692824
1.2164162003
1.1862888494
1.1855131616
1.2164501169
1.2166052154
1.1895259477
1.2155987958
1.2164290493
1.1896088631
1.1921004472
1.2166234490
1.1847031847
1.2163543743
1.2162880499
1.1889145616
1.2160064765
1.2022239951
1.2143476700
1.2163154245
1.1995237112
1.1862898484
1.2171863476
1.2174121326
1.1863875879
1.2164027328
1.2156979898
1.2169163943
1.1851646796
1.2163801340
1.2156519704
1.1862167355
1.2165334836
1.2161716366
1.1867402966
1.2168985565
1.2049096606
1.2170129174
1.1857390709
1.2142488867
1.2161904293
1.1851962746
1.1846695648
1.2005968172
1.2163373467
1.2156001063
1.1857986736
1.1847357982
1.1896093306
1.2075106349
1.2161371271
1.2164353307
1.1878303016
1.1851655539
1.1862175679
1.1850409151
1.2170138232
1.2169173163
1.1862587325
1.2177870280
1.2032853455
1.2161709945
1.2163087983
1.2143456580
1.1852554939
1.1849398300
1.2173176442
1.1869562111
1.2100887113
1.2059604192
1.2165979788
1.2161902550
1.1848735433
1.2161372418
1.2164079027
1.2162166897
1.2129021022
1.1844827552
1.2163381364
1.2127009763
1.1866343400
1.1937568736
1.1881505992
1.1899103856
1.2086099172
1.1849410681
1.2109388731
1.1855638638
1.1985541944
1.1878630518
1.1878320232
1.2066535331
1.1850449565
1.1853955559
1.2177892651
1.1874576121
1.1859404181
1.1917293915
1.1884575375
1.2094085698
1.1960400113
1.1873533907
1.2039111678
1.1852567329
1.1857986274
1.1862598023
1.2168322710
1.2121669803
1.2112650289
1.2164087103
1.2198245693
1.2011983620
1.2162172499
1.2194016258
1.2152918648
1.2176117095
1.2193690146
1.2183743089
1.2178277748
1.2136473276
1.2196897401
1.2163040271
1.2197439212
1.2166967582
1.2168610535
1.2188935807
1.2182940603
1.2186945822
1.2055324393
1.1941835821
1.1882153238
1.1855631295
1.1990432112
1.2073229830
1.1878652822
1.2109370193
1.1881532525
1.1861281169
1.2117639344
1.1903016276
1.1870571797
1.1855647948
1.1975457495
1.1893081645
1.1929235005
1.1861008891
1.2028269766
1.1921134875
1.1877106486
1.1853965681
1.1965077071
1.2044944604
1.1867702368
1.2082290381
1.2101763672
1.1888032091
1.1864782491
1.1950915066
1.1884603013
1.1910121937
1.1859410987
1.2193818321
1.2017225634
1.2130248216
1.2163080676
1.2190004296
1.2206047656
1.2167728702
1.2188999606
1.2178130114
1.2187200905
1.2139208218
1.2165927070
1.2195939974
1.2211822590
1.2207392940
1.2001426156
1.2168339504
1.2192073416
1.2186451354
1.2191434642
1.2145562666
1.2177943696
1.2199223484
1.2210373722
1.2154489321
1.2188547547
1.2183779510
1.2177972064
1.2121679543
1.2172106500
1.2195331135
1.2210716396
1.2202165010
1.2193927656
1.2178470516
1.1944787224
1.1885266749
1.1865882154
1.1861289183
1.1874018730
1.1933779633
1.2061586723
1.2125475650
1.1905579066
1.2117661306
1.1896478361
1.1994341747
1.2079556841
1.1980649123
1.1882169386
1.1923710452
1.1880112629
1.1864785146
1.1869440175
1.1914036192
1.2033928444
1.2109022285
1.1890830305
1.2089539074
1.1888048437
1.1968490074
1.2050326370
1.1956066273
1.1871842791
1.2172893790
1.2198091844
1.2201802501
1.2173462127
1.2148999533
1.2222493781
1.2206907978
1.2021787425
1.2205438845
1.2202274012
1.2210231519
1.2201003725
1.2138349875
1.2006790870
1.2219321005
1.2178889798
1.2226184365
1.2189227386
1.2188782712
1.2189916411
1.2211927551
1.2181601137
1.2130292120
1.2217184503
1.2203887716
1.2207326951
1.2201552123
1.2209931210
1.2190621034
1.2154227305
1.2224091014
1.2165188713
1.2225583535
1.2196021169
1.2262821300
1.2234746139
1.2132876651
1.2271434667
1.1937044379
1.1885272796
1.2254028986
1.2279782010
1.1997330792
1.2230153357
1.2085434474
1.1984675795
1.2277701138
1.2272617864
1.2264640292
1.1869865171
1.2067502546
1.2125528144
1.1906671159
1.1946404311
1.1899481082
1.2198985041
1.2189354786
1.2258883264
1.1876326806
1.2259659260
1.2284342926
1.1887334357
1.2261445684
1.2221306704
1.2115836362
1.2264008174
1.1916916539
1.1875230602
1.2242834783
1.2281905007
1.1970720361
1.2246333685
1.2055217904
1.1959758301
1.2285798358
1.2268196467
1.2253472199
1.1869438579
1.2038987201
1.2096462775
1.1892154805
1.1924905110
1.1890834685
1.2182730538
1.2206065373
1.2248455569
1.1873034653
1.2270114011
1.2283439305
1.1881874058
1.1991007882
1.2217052333
1.2145922624
1.2220701847
1.2108058949
1.2226200888
1.2232865796
1.2202870131
1.1862894802
1.1855400917
1.1908617446
1.2238661681
1.1883548126
1.2038730396
1.2182235461
1.2217307373
1.2158336244
1.2057180630
1.2220064138
1.2124567550
1.2184493377
1.2025680802
1.2241176826
1.2011241382
1.2190144940
1.2210808998
1.1969715800
1.2213367160
1.1958320354
1.2205985083
1.2162387057
1.2217050151
1.2128447814
1.2226340586
1.2238393283
1.2210344758
1.1866319673
1.1860185346
1.1880735964
1.2233621982
1.1901909375
1.2060037629
1.2199251990
1.2216191547
1.2138409538
1.2025177399
1.2221653934
1.2094694301
1.2194144751
1.2241239144
1.2175595667
1.2201906669
1.1990975048
1.2224552112
1.2203449441
1.2313986972
1.2252091382
1.2243431805
1.2211968708
1.2230180930
1.2252289932
1.2278467495
1.1938960475
1.2254376244
1.2301722140
1.2248845253
1.2254287502
1.2199028371
1.1987572705
1.2267542738
1.2211586460
1.2189373918
1.2236337954
1.2159317411
1.2244223064
1.1901193880
1.2266199662
1.2264728473
1.2244441202
1.2305610627
1.2267506572
1.2299118009
1.2226218663
1.1872798624
1.2175237511
1.2284385650
1.2072984355
1.2176879895
1.2182834555
1.2304843763
1.2300760679
1.2236366319
1.2281349837
1.2294037771
1.2277736573
1.2279843906
1.2315100790
1.1887333188
1.2132935491
1.2259690607
1.2257699628
1.2273959943
1.2218336028
1.2315953260
1.2251790573
1.2289060808
1.2235793763
1.2194866896
1.2211168897
1.2237877065
1.2291465509
1.1918547171
1.2254129398
1.2311059282
1.2251069802
1.2216456640
1.1962113754
1.2273466542
1.2225452490
1.2164856660
1.2164842776
1.2262721710
1.1892152604
1.2269119905
1.2273543198
1.2249655364
1.2299738129
1.2290373970
1.2214995897
1.1873029675
1.2194833122
1.2258856023
1.2282476472
1.2043449958
1.2159337584
1.2295429555
1.2297826370
1.2248303327
1.2269746565
1.2284454842
1.2270145883
1.2283491428
1.2318875281
1.1877658446
1.2102958497
1.2246361283
1.2266626209
1.1939436859
1.2198548567
1.2337607016
1.2335718718
1.2233727325
1.2014837448
1.1866018221
1.2235075407
1.1901912908
1.2264026454
1.2236395252
1.2201147975
1.2104692409
1.2342115796
1.1887780104
1.1855405135
1.1901310047
1.2218579020
1.1937532596
1.1989447847
1.2345431753
1.2235642489
1.1865676849
1.2306350307
1.2333944013
1.1991014755
1.1892181411
1.2091113309
1.2091123516
1.2047369101
1.2167126227
1.2223737164
1.2324130493
1.2003015071
1.2073730555
1.1874336108
1.1865043507
1.2169984710
1.2251894165
1.1857188888
1.1864914005
1.2108982451
1.1850906357
1.2310992085
1.1918670970
1.2209223658
1.2342860260
1.2331110827
1.2232101233
1.1875523078
1.2230764350
1.1880739152
1.2248956319
1.2185541842
1.2073736978
1.2335973805
1.1878609966
1.1860190230
1.1891653351
1.2226314079
1.1928226997
1.1963190696
1.2345223271
1.2236689697
1.1857192655
1.2319330098
1.2326717889
1.1970755944
1.1908621945
1.2060044827
1.1960335099
1.2017686035
1.2145975015
1.2213890089
1.2326010895
1.1969720376
1.1875269404
1.1866323647
1.1889411641
1.2139839867
1.2272653803
1.1867321665
1.1865673655
1.2078000706
1.2299841387
1.2097536331
1.1887777279
1.1989447494
1.2199037495
1.1874326833
1.2301752221
1.2187689730
1.2139880186
1.2004991902
1.2217767449
1.1863961531
1.1875254938
1.1931334135
1.2292677937
1.2001052292
1.2255215195
1.1841274568
1.2078025171
1.2026755213
1.2255240288
1.2248485086
1.2244239486
1.1894252825
1.2266144191
1.2242948411
1.2191113501
1.2182758669
1.2292743131
1.1956352065
1.1945715982
1.2314025837
1.2268244970
1.2163155746
1.1833712265
1.2203417755
1.1886204833
1.2278490825
1.2270741282
1.2169285704
1.2144031421
1.2287092408
1.2146248913
1.1815641518
1.2244994772
1.2321187918
1.2206084654
1.2296465047
1.2313759866
1.2095942744
1.1852344137
1.2296502001
1.2300239560
1.1939443961
1.2077517693
1.2281495208
1.1903529355
1.1901315001
1.2289532698
1.2064340182
1.1878601370
1.1963192797
1.2172435606
1.1875263305
1.2291492146
1.2169295541
1.2276157681
1.2109015814
1.2028113758
1.2233545967
1.1886571396
1.1876530793
1.1954791495
1.1972106319
1.1828859688
1.2047381859
1.1991326028
1.2226510000
1.2268258344
1.2222995858
1.1857692056
1.2263444461
1.2317192950
1.2294106876
1.1919475736
1.1922631091
1.2309268459
1.2132722754
1.1817559095
1.1879453804
1.2262741714
1.2313699965