<VTKFile type="UnstructuredGrid" version="0.1">
	<UnstructuredGrid>
		<Piece NumberOfPoints="1862" NumberOfCells="3498">
			<CellData>
				<DataArray type="Int32" Name="type" NumberOfComponents="1" Format="ascii">
0
0
0
0
0
0
0
0
0
0
0
0
0
0
0
0
1
0
0
1
0
0
0
0
0
0
0
0
0
0
0
0
0
1
0
0
0
0
0
0
0
0
0
0
0
0
0
0
0
0
1
0
0
0
0
0
0
0
0
0
0
1
0
0
0
0
0
0
0
0
0
0
0
0
0
0
0
0
0
0
0
0
0
0
0
0
0
0
0
0
0
0
0
0
0
0
0
0
0
0
0
0
0
0
0
0
0
0
0
0
0
0
0
0
0
0
0
0
0
0
0
0
0
1
0
0
0
0
0
0
0
0
0
0
0
0
0
0
0
0
0
0
0
0
0
0
0
0
0
0
0
1
0
1
1
0
0
0
0
0
0
0
0
0
0
0
0
0
1
0
1
0
0
0
0
1
0
0
0
0
0
0
0
0
1
1
0
0
0
0
0
1
0
0
0
0
0
0
0
0
1
0
0
0
0
0
0
0
0
0
0
0
0
0
0
0
0
0
0
0
0
0
0
0
0
0
0
0
0
0
0
0
0
1
0
0
0
0
0
0
0
0
0
0
0
0
0
0
0
0
0
0
0
0
0
0
0
0
0
0
0
0
0
0
0
0
0
0
0
0
0
0
0
0
0
0
0
0
0
0
0
1
0
0
0
0
0
0
0
0
0
0
0
0
0
0
0
0
0
0
0
0
0
0
0
0
0
0
0
0
0
0
0
0
0
0
0
0
0
0
0
0
0
0
0
0
0
0
0
0
0
0
1
0
0
0
0
0
0
0
0
0
0
0
0
0
0
0
0
0
0
0
0
0
0
0
0
0
0
0
0
0
0
0
0
0
0
0
0
0
0
0
0
0
0
0
0
0
0
0
0
0
0
0
0
0
0
0
0
0
1
0
0
0
0
0
0
0
0
0
0
0
0
0
0
0
0
0
0
0
0
0
0
0
0
0
0
0
0
0
0
0
0
0
0
0
0
0
0
0
0
0
0
0
0
0
0
0
0
0
0
0
0
0
0
0
0
0
0
0
0
0
0
0
0
0
0
0
0
0
0
0
0
0
0
0
0
0
0
0
0
0
0
0
0
0
0
0
0
0
0
0
0
0
0
0
0
0
0
0
0
0
0
0
0
0
0
0
0
0
0
0
0
0
0
0
0
0
0
0
0
0
0
0
0
0
0
0
0
0
0
0
0
1
0
0
0
0
0
0
0
0
0
0
0
0
0
0
0
0
0
0
0
1
0
0
0
0
0
0
0
0
0
0
0
0
0
0
0
0
0
0
0
0
0
0
0
0
0
0
0
0
0
0
0
0
0
0
0
0
0
0
0
0
0
0
0
0
0
0
0
0
0
0
0
0
0
1
0
0
0
0
0
0
0
0
0
0
0
0
0
0
0
0
0
0
0
0
0
0
0
1
0
0
0
0
0
0
0
0
0
0
0
0
0
0
0
0
0
0
0
1
0
0
0
1
0
0
0
0
0
0
0
0
0
0
0
0
0
0
0
0
0
0
0
0
0
0
0
0
0
1
0
0
0
0
0
0
0
1
0
0
0
0
0
0
0
0
0
0
0
0
0
0
0
0
0
0
0
0
0
0
0
0
0
0
1
0
0
0
0
0
0
0
1
0
0
0
0
0
0
1
0
0
0
0
0
0
0
0
0
0
0
0
0
0
0
0
0
0
0
0
0
0
0
0
0
0
0
0
0
0
0
0
0
0
0
0
0
0
1
0
0
0
0
0
1
0
0
0
0
0
0
0
1
0
0
0
0
0
0
0
0
0
0
0
0
0
1
0
0
0
0
0
0
0
0
0
0
0
0
0
0
0
0
0
0
0
0
0
0
0
0
0
0
0
0
0
0
0
0
0
0
0
0
0
0
0
0
0
0
0
0
0
0
0
0
0
0
0
0
0
1
0
0
0
0
0
0
0
0
0
0
0
0
0
0
0
0
0
0
0
1
0
0
0
0
0
0
0
0
0
1
0
0
0
0
0
0
0
0
0
0
0
0
0
0
0
0
0
0
0
0
0
0
0
0
0
0
0
0
0
1
0
1
0
0
0
0
0
0
0
0
0
0
0
0
0
0
0
0
0
0
0
0
0
0
0
0
0
0
0
1
0
0
0
1
0
0
0
0
0
0
0
0
0
0
0
0
0
0
0
0
0
0
0
0
0
0
0
0
0
0
0
0
1
0
0
0
0
0
0
0
0
0
0
0
0
0
0
0
0
0
0
0
0
0
0
0
0
0
1
0
0
0
0
0
0
0
0
0
0
0
0
0
0
0
0
0
0
0
0
0
0
0
1
0
0
0
0
0
0
1
0
0
0
0
0
0
0
0
0
0
0
1
0
0
0
0
0
0
0
0
0
0
0
0
0
0
0
0
0
0
0
0
1
0
0
0
0
0
0
0
0
0
0
0
1
0
0
0
0
0
0
0
0
0
0
0
0
0
0
0
0
0
0
0
0
0
1
0
0
0
0
0
0
0
0
0
1
1
0
1
0
1
0
0
0
0
0
0
0
0
0
0
0
1
0
0
0
0
0
1
1
0
0
0
0
0
0
1
0
0
0
0
0
1
1
1
0
0
0
0
0
0
0
0
0
0
0
0
1
1
0
0
1
0
0
0
0
0
1
0
0
0
1
0
1
0
0
0
0
0
0
0
1
0
0
0
0
0
0
0
1
0
0
1
0
0
0
0
0
0
0
0
0
0
0
0
0
0
0
1
0
0
0
0
0
0
0
0
0
0
0
0
0
0
0
0
0
0
0
0
0
0
0
0
0
0
0
0
0
0
0
0
0
0
0
0
1
0
0
0
0
0
0
1
0
0
0
1
0
0
0
0
0
0
0
0
0
0
0
1
0
0
0
0
0
0
0
0
0
0
0
0
0
0
0
0
0
0
0
0
0
0
0
0
0
0
0
0
0
0
0
0
0
0
0
0
0
0
0
0
1
1
0
0
0
0
0
0
0
0
0
0
0
0
0
1
0
0
0
0
0
0
0
0
0
0
0
0
0
0
0
0
0
0
0
0
0
0
0
0
0
0
0
0
0
0
0
0
0
0
0
0
0
0
0
0
0
0
0
0
0
0
0
0
0
0
0
0
0
0
0
0
0
0
0
0
0
0
0
0
0
0
0
0
0
0
0
0
1
1
0
0
0
0
0
0
0
0
1
0
0
0
0
0
0
0
0
0
0
0
0
0
0
0
0
0
0
0
0
0
0
0
1
0
0
0
0
0
0
0
0
0
0
0
0
0
0
0
0
1
0
0
0
0
0
0
0
0
0
0
0
0
0
0
0
0
0
0
0
0
0
0
0
0
0
0
0
0
0
0
0
0
0
0
0
0
0
0
0
0
0
0
0
0
0
0
0
0
0
0
0
0
0
0
0
0
0
0
0
0
0
0
0
0
0
0
0
0
0
0
0
0
0
0
0
0
0
0
0
0
0
0
0
0
0
0
0
0
0
0
1
1
0
0
0
0
0
1
0
0
0
0
0
0
0
0
0
0
0
0
1
0
0
0
0
0
0
0
0
0
0
0
0
0
0
0
0
0
0
0
0
0
0
0
0
0
0
0
0
0
0
0
0
0
0
0
0
0
0
0
0
0
0
0
0
0
0
0
0
0
0
0
0
0
1
0
1
0
0
0
0
0
0
0
0
0
0
0
0
0
0
0
0
0
0
1
0
0
0
0
0
0
0
0
0
0
0
0
0
0
0
0
0
0
0
0
0
0
0
0
0
0
0
0
0
0
0
0
0
0
0
0
0
0
0
0
0
0
0
0
0
0
0
0
0
0
0
0
0
0
0
0
0
0
0
0
0
0
0
0
0
0
0
0
0
0
1
0
0
0
0
0
0
0
0
0
0
1
0
0
0
0
0
0
0
0
0
0
0
0
0
0
0
0
0
0
0
0
0
0
0
0
0
0
0
0
0
0
0
0
0
0
0
0
0
1
0
0
0
0
0
0
0
0
0
0
0
0
0
0
0
0
0
0
0
0
0
0
0
0
0
0
0
0
0
0
0
0
0
0
0
0
0
0
0
0
0
0
0
0
0
0
0
0
0
0
0
0
0
0
0
0
0
0
0
0
0
0
0
0
0
0
0
0
0
0
0
0
0
0
0
0
0
0
0
0
0
1
0
0
0
0
0
0
0
0
0
0
0
0
0
0
0
0
0
0
0
0
0
0
0
0
0
0
0
0
0
0
0
0
0
0
0
0
0
0
0
0
0
0
0
0
0
0
0
0
0
0
0
0
0
0
0
0
0
0
0
0
0
0
0
0
0
0
0
0
0
0
0
0
0
0
0
0
0
0
0
0
0
0
0
0
0
0
0
0
0
0
0
0
0
0
0
0
0
0
0
0
0
0
0
0
0
0
0
0
0
0
0
0
0
0
0
0
0
0
0
0
0
0
0
1
0
0
0
0
0
0
0
0
0
0
0
0
0
0
0
0
0
0
0
0
0
0
0
0
0
0
0
0
0
0
0
0
0
0
0
0
0
0
0
0
0
0
0
0
0
0
0
0
0
0
0
0
0
0
0
0
0
0
0
0
0
0
0
0
0
0
0
0
0
0
0
0
0
0
0
0
0
0
0
0
0
1
0
0
0
0
0
0
0
1
0
0
0
0
0
0
0
0
0
0
0
0
0
0
0
0
0
0
0
0
0
0
0
0
0
0
0
0
0
0
0
0
0
0
0
0
0
1
0
0
0
0
0
0
0
0
0
0
0
0
0
0
0
0
0
0
0
0
0
1
0
0
0
0
0
0
0
0
0
0
0
0
1
1
0
0
0
0
0
0
0
0
0
0
0
0
0
0
0
1
1
0
1
0
0
0
0
0
0
0
0
0
1
0
0
0
0
0
0
1
0
0
0
0
0
0
0
0
0
0
1
0
0
0
0
1
0
1
0
0
0
0
0
0
0
1
0
0
0
1
0
0
0
1
0
1
1
0
0
1
1
0
0
0
1
0
0
0
1
0
0
0
0
0
0
0
0
0
1
0
0
0
0
0
0
1
0
0
0
0
0
0
0
0
0
0
0
0
0
0
0
0
0
0
0
0
0
0
0
0
0
0
0
1
0
0
1
0
0
0
0
0
0
0
0
0
0
0
0
0
0
0
0
0
0
1
0
0
1
0
0
0
0
0
0
0
0
0
0
0
1
0
0
1
0
0
0
0
0
0
0
0
0
0
0
1
1
0
0
0
0
0
0
0
0
0
0
0
0
1
0
0
0
0
0
0
0
0
0
0
0
0
0
0
0
0
0
1
0
0
0
0
0
0
0
0
0
0
0
0
0
0
0
0
0
1
0
0
0
0
0
0
0
0
0
0
0
0
0
0
0
0
0
0
0
0
0
0
0
0
0
0
0
0
0
0
0
0
0
0
0
0
0
0
0
0
1
0
0
0
0
0
0
0
0
0
0
0
0
0
0
0
0
0
0
0
0
0
0
0
0
0
0
0
0
0
0
0
0
0
0
0
0
0
0
0
0
0
0
0
0
0
1
0
0
0
0
0
0
0
0
0
0
0
0
0
0
0
0
0
0
0
0
0
0
0
0
0
0
0
0
0
0
0
0
0
0
0
0
0
0
0
0
0
0
0
0
0
0
0
1
0
0
0
0
0
0
0
0
0
0
1
0
0
0
0
0
0
0
0
0
0
0
0
0
0
0
1
0
0
1
0
0
0
0
0
0
0
0
0
0
0
0
0
0
0
0
0
0
0
0
0
0
0
1
0
0
0
0
0
0
0
0
0
0
0
0
0
0
0
0
0
0
0
0
0
0
0
0
0
0
0
0
0
0
0
0
0
0
0
1
0
0
0
0
0
0
0
0
0
0
0
0
0
0
0
0
0
0
0
0
0
0
0
0
0
0
0
0
0
0
0
0
0
0
0
0
0
0
0
0
0
0
0
0
0
0
0
0
0
0
0
0
0
0
0
0
0
0
0
0
0
0
0
0
0
0
0
0
0
0
0
0
0
0
0
0
1
0
0
0
0
0
0
0
0
0
0
0
0
0
0
0
0
0
0
0
0
0
0
0
0
0
0
0
0
0
0
0
0
0
0
0
0
0
0
0
1
0
0
0
0
0
0
0
0
0
0
0
0
1
1
0
0
0
0
0
0
0
0
0
0
0
0
0
0
0
0
0
0
0
0
0
0
0
0
0
0
0
0
0
0
0
0
0
0
0
0
0
0
0
0
0
0
0
0
0
0
0
0
0
0
0
0
0
0
0
0
0
0
0
0
0
0
0
0
0
0
0
0
0
0
0
0
0
0
0
0
0
0
0
0
0
0
0
0
0
0
0
0
0
0
0
0
0
0
0
0
0
0
0
0
0
1
0
1
0
0
0
0
0
0
0
1
1
1
1
0
0
0
0
0
0
0
0
0
0
0
0
0
0
0
0
0
0
0
0
0
0
0
0
0
0
0
0
1
1
0
0
0
0
0
0
0
0
0
0
0
0
0
0
0
0
0
0
1
0
0
0
0
0
0
0
1
1
0
1
1
0
0
1
0
0
0
0
0
0
0
1
0
1
0
0
0
0
0
0
0
0
0
0
0
0
0
0
0
0
0
0
0
0
0
0
0
0
0
0
0
1
1
0
0
0
1
1
0
0
0
0
1
0
0
1
0
1
0
0
0
0
0
1
0
0
0
1
0
0
0
0
0
0
0
0
0
0
0
0
0
0
0
0
0
0
0
0
0
0
0
0
0
0
0
1
0
0
0
0
0
0
1
0
0
0
0
0
0
0
0
0
0
0
0
0
0
0
0
0
0
0
0
0
0
0
0
0
0
0
0
0
1
0
1
0
0
0
0
0
0
0
1
0
0
0
0
0
0
0
0
0
0
0
1
0
0
0
0
0
0
0
0
0
1
0
0
0
0
0
0
0
1
0
0
0
0
0
0
0
1
0
0
0
0
0
0
0
0
0
0
0
0
0
0
0
0
0
0
0
1
0
1
0
0
0
0
0
1
0
0
0
0
0
0
0
0
0
0
0
0
0
0
0
0
0
0
0
0
0
0
0
0
0
1
0
1
0
0
0
0
0
0
0
0
0
1
0
0
0
0
0
1
0
0
0
0
0
0
0
0
0
0
0
0
0
0
0
1
0
0
0
0
0
0
0
0
1
0
0
0
0
0
0
0
0
0
0
0
0
0
0
0
0
0
0
0
0
0
0
0
0
0
0
0
0
0
0
1
0
0
0
0
0
0
0
0
0
0
0
0
0
0
0
0
1
0
0
0
0
0
0
0
0
1
0
0
0
0
0
0
0
0
0
1
0
0
0
0
0
1
0
0
0
0
0
0
0
0
0
0
0
0
0
0
0
0
0
0
0
1
0
0
0
0
0
0
1
0
0
0
0
0
0
0
0
1
0
0
0
0
0
0
0
0
0
0
0
0
0
0
1
0
0
1
0
0
0
1
0
0
0
0
0
0
0
0
0
0
0
0
0
0
0
0
1
0
0
0
0
0
0
0
0
0
0
1
0
1
0
0
0
0
0
0
1
0
0
0
0
0
0
0
0
0
0
0
0
0
0
0
0
0
0
0
0
0
0
0
0
0
0
0
1
1
0
0
0
0
0
0
1
0
0
0
0
0
0
0
0
0
0
0
0
0
1
0
0
0
0
0
0
0
1
0
0
0
0
0
0
0
0
0
0
0
0
0
0
0
0
0
0
0
0
0
0
0
0
0
0
0
1
0
0
0
0
0
0
0
0
0
0
1
0
0
1
0
0
0
0
0
0
0
0
0
0
0
0
0
0
0
0
0
0
0
0
0
0
0
0
0
0
0
0
0
1
0
0
0
0
0
0
0
1
0
0
0
0
0
0
0
1
0
0
0
0
1
0
0
0
0
0
0
0
0
0
0
0
1
0
1
0
0
0
1
0
				</DataArray>
				<DataArray type="Float64" Name="h" NumberOfComponents="1" Format="ascii">
1.1983655347
1.1983584462
1.1999963714
1.1971680323
1.2007097920
1.2002363388
1.1987574186
1.1963886017
1.1987924304
1.1942648580
1.1965471905
1.1992073738
1.1970220957
1.1951701091
1.1970030809
1.1958802371
1.1977212399
1.1949012249
1.1983497272
1.1953716142
1.2012872951
1.1980629200
1.2002679103
1.2020652263
1.1968400946
1.1957090940
1.2000620802
1.2061149296
1.2015440796
1.1942783977
1.1945056808
1.2003081714
1.1980761537
1.2003936437
1.2058038073
1.2028826600
1.2036478440
1.2012491455
1.2061142048
1.2020908345
1.2015927168
1.2060677824
1.2000740559
1.2025178416
1.2029601730
1.2048854179
1.2012462719
1.2073371473
1.2151330325
1.2146477304
1.2028251910
1.2038223132
1.2025371049
1.2101136798
1.2051915741
1.2009643978
1.2048661176
1.2090832227
1.2098964567
1.2093944490
1.2115192433
1.2110538451
1.2145021373
1.2039026265
1.2034992575
1.2081543724
1.2141113819
1.2139565323
1.2107945163
1.2102774124
1.2097313047
1.2056286189
1.2020557612
1.2109627687
1.2102785009
1.2079356290
1.2092003916
1.2114120843
1.2080055982
1.2073493786
1.2127512059
1.2091415698
1.2166670078
1.2133390602
1.2061252479
1.2090588290
1.2133969068
1.2127029527
1.2119952424
1.2166005968
1.2136309821
1.2079919562
1.2119591013
1.2163762527
1.2101104989
1.2090481901
1.2121974521
1.2062165330
1.2071714964
1.2133153631
1.2164380377
1.2131852322
1.2110531991
1.2083692538
1.1925834187
1.2137659753
1.2109559380
1.2156331560
1.2114484370
1.2100795906
1.2158907288
1.2162413890
1.2130826846
1.2138857857
1.2118018805
1.2153221605
1.2110329207
1.1932423734
1.2149768350
1.2125336830
1.1923028942
1.2120728901
1.2098018943
1.1894775564
1.2133266636
1.2155499719
1.2117992533
1.1898891219
1.2150772007
1.2155363753
1.2146324439
1.2109971185
1.2125867794
1.2156030067
1.1922438958
1.2146629646
1.1945681610
1.2155440195
1.2142694725
1.1971158986
1.1906592584
1.1903204016
1.2147852112
1.1990058240
1.2098842726
1.2141851908
1.1956465848
1.2160161964
1.1906012653
1.2158491602
1.1936842374
1.2157165280
1.2155799635
1.2157983330
1.2137187611
1.2155814890
1.2159300082
1.1917544394
1.2157535293
1.1887353070
1.1980567982
1.2159452163
1.1949395540
1.1897661789
1.1910901520
1.2158762593
1.2009155643
1.1964599562
1.1880117920
1.2154664415
1.2159806862
1.1877326896
1.2157800389
1.1919406486
1.2017992997
1.2154487004
1.1998769264
1.2163455197
1.2156528460
1.1901470878
1.2157548447
1.2037516898
1.1890341256
1.2106626354
1.1875059276
1.1866746525
1.2028758142
1.2156368993
1.1877774235
1.1868058881
1.2056836482
1.2158073243
1.1880430433
1.2048570758
1.2154534784
1.2164094114
1.1914885515
1.2075820982
1.2067521504
1.2155373750
1.1866154142
1.2116893282
1.1867955906
1.2156694493
1.2094807628
1.1907138782
1.1966492268
1.1938967939
1.2086200052
1.1999047053
1.2055284004
1.1876262169
1.1912254714
1.1909823275
1.1952576474
1.2074081319
1.1981715348
1.1915564781
1.2036298968
1.1893620053
1.2105100830
1.2169857201
1.2017363517
1.2161201428
1.2125414794
1.2163312950
1.2171957606
1.2146464477
1.2113735917
1.2171752637
1.2158877736
1.2166332693
1.2136621141
1.2157852251
1.2167562235
1.2154629019
1.2063445898
1.1975368452
1.1895455298
1.2006987588
1.2061511933
1.1948672194
1.1920295721
1.2007169959
1.1945998399
1.1974085161
1.1915627606
1.2044392007
1.1961701211
1.1927563394
1.1990420035
1.2042906237
1.1923862473
1.2082518712
1.2080284588
1.1923474659
1.1989799206
1.1959849959
1.1909790276
1.2167604272
1.2024614954
1.2132040108
1.2152849131
1.2168200068
1.2134968928
1.2170219439
1.2169867762
1.2111722770
1.2159492051
1.2177576754
1.2179873020
1.2025523030
1.2173868770
1.2153563077
1.2161790136
1.2120227567
1.2143049374
1.2161076215
1.2173742866
1.2123682647
1.2174409967
1.2163259594
1.2165641959
1.2174903260
1.2179634786
1.2171592028
1.2145011012
1.1983046897
1.1928060959
1.1932550993
1.1982430975
1.2069755898
1.1957885875
1.1955824145
1.2013662246
1.2067220301
1.2014534646
1.1969876611
1.1938723705
1.1923439646
1.1936159984
1.1968575300
1.2050850993
1.2086012502
1.2088800098
1.1997658467
1.2048734624
1.1997773746
1.1935094826
1.2138195759
1.2160320656
1.2159239222
1.2166165800
1.2117814296
1.2188192923
1.2174522811
1.2030792283
1.2181782228
1.2178096121
1.2032344062
1.2175075506
1.2141304827
1.2185238089
1.2178266072
1.2149287324
1.2151498401
1.2167811430
1.2173189654
1.2168060365
1.2179101903
1.2182558211
1.2183395791
1.2170884016
1.2126187722
1.2180991197
1.2129982081
1.2187666400
1.1989447483
1.2207596213
1.2019035714
1.2072365463
1.2020757620
1.1939643775
1.2075528925
1.1965664166
1.1989258212
1.1964235328
1.1943638660
1.2215977806
1.2163147576
1.2091255042
1.2200780836
1.1976087468
1.1945635235
1.2220901145
1.2003407183
1.2178882511
1.2053809898
1.2004382302
1.2213092495
1.2211781344
1.2217343365
1.1936123184
1.2056653941
1.2094559654
1.1976694944
1.2137868162
1.2158359829
1.2184283925
1.1947626074
1.2198337535
1.2222133108
1.1948751260
1.2187431174
1.2181389381
1.2181849383
1.2187126450
1.1965903199
1.2196635870
1.2143903058
1.2123434424
1.2189608240
1.2174831232
1.2035928375
1.2192734028
1.2038279435
1.2147351276
1.2166908855
1.2165346417
1.2018195710
1.2180156188
1.2131676045
1.2174806092
1.2116560515
1.2192573366
1.2188062865
1.1966332833
1.1974909210
1.1986151176
1.2077405404
1.2155172472
1.2190840144
1.2057172493
1.2186417493
1.2097354718
1.2182072135
1.2195639484
1.2135859154
1.2157755020
1.2037223013
1.2174261993
1.2151038640
1.2200502560
1.2167576646
1.1994946733
1.2215132806
1.2207081011
1.2025837584
1.2207083389
1.2158283155
1.2141767818
1.2123680839
1.1971008634
1.2214882418
1.2221988184
1.2187475557
1.2201686802
1.1949935756
1.2218433501
1.2080762635
1.2174289240
1.2227608099
1.2206378519
1.2224163774
1.2189191744
1.2193192626
1.2234823813
1.2204691624
1.2205720388
1.2144926123
1.2171353223
1.2206933523
1.1982062495
1.2223851886
1.2165156982
1.2009601103
1.2169173642
1.2186304641
1.2194707152
1.2224384959
1.2211318994
1.2195313015
1.1947589103
1.2146349221
1.2061794505
1.2123701878
1.2238298507
1.2231625786
1.2193480332
1.2237909182
1.1954737718
1.2099834884
1.1998811346
1.2184786303
1.2043347176
1.2188222185
1.2178933213
1.2153035075
1.2091852422
1.1975795721
1.2196409709
1.2029860169
1.2197286142
1.2066332060
1.2128642775
1.2173150047
1.2248616044
1.2030565746
1.1958331906
1.1965651638
1.1964817788
1.2104663350
1.1986210001
1.2191753695
1.2244451062
1.2244493066
1.2199076600
1.1967759560
1.2181356991
1.1968920967
1.2176548135
1.2141320744
1.2256414070
1.1961778442
1.1966315207
1.2000880410
1.2013453696
1.2253532969
1.2193600283
1.1957701361
1.2222084995
1.2234291784
1.2011308097
1.1986145084
1.2077412852
1.2047635555
1.2163683313
1.1957361236
1.2123399052
1.2190409713
1.1967770465
1.2085502179
1.2210170123
1.2029865674
1.2147200490
1.1958299468
1.2215688912
1.2158714628
1.1960398957
1.2026160868
1.2085527703
1.2182962189
1.2174416760
1.2212425355
1.1996494005
1.2229745258
1.1941175960
1.2197160889
1.2129947373
1.2081259142
1.2218536578
1.1998812347
1.2202981918
1.1975283977
1.1975785672
1.2082446306
1.1961749579
1.2013456227
1.1957327852
1.2129955739
1.2104693924
1.2061524215
1.1977425646
1.1960286114
1.2018150689
1.2010360303
1.1957990152
1.2066350367
1.2039901580
1.1960766137
1.2236941064
1.1996999484
1.1984776916
1.2120886487
1.1963014713
1.2138085516
1.2100560787
1.1948937425
1.2228868330
1.2232648921
1.2062070604
1.1944846937
1.2231680655
1.1986207379
1.2102306768
1.2204741836
1.2047646325
1.2178968987
1.2202022351
1.2195460628
1.2043536883
1.2188842686
1.2227338541
1.2200026515
1.2158317749
1.1964852759
1.2133468527
1.2163100397
1.2210188053
1.2065530975
1.2011707120
1.2194751207
1.2222101226
1.1918506871
1.2177671247
1.1976365987
1.2205826014
1.2200547871
1.2169207813
1.1902090249
1.2201824446
1.2076566371
1.1994025979
1.2103395729
1.1928113269
1.2146386242
1.2085165842
1.1966218944
1.2253080076
1.2050889755
1.2111444850
1.2046357553
1.2247468223
1.1997345357
1.2187515843
1.1967658446
1.2041417635
1.2244495000
1.2207140308
1.1838124653
1.2017727517
1.1969911583
1.2238725415
1.1879599188
1.2163105403
1.1985509373
1.2203043399
1.1975273730
1.2043546209
1.2081279603
1.1996493762
1.2233618554
1.2153898112
1.1966084459
1.1960371014
1.2028220862
1.1826710493
1.2251334692
1.1962988910
1.1931061188
1.2041418340
1.1863218355
1.1962421881
1.2100584863
1.2026166197
1.2062085838
1.1984773249
1.2236345774
1.2257241765
1.2224001056
1.2190956540
1.1960258163
1.2017609377
1.2063675801
1.2074135542
1.2252288480
1.2231781444
1.2120889437
1.1992930357
1.2248942152
1.1793385902
1.2017532468
1.1966752949
1.1977998205
1.1751602283
1.2054444876
1.2093860579
1.2010361639
1.2227385225
1.2001622210
1.1969017954
1.1971031503
1.2214022913
1.2244343107
1.2261945380
1.2217494639
1.1785460379
1.2035369124
1.1967347100
1.1988274546
1.2262140628
1.2267087582
1.2082451067
1.1991297549
1.2062936568
1.1897861154
1.2237243808
1.1882520676
1.1918247137
1.2277012662
1.2265666455
1.2031302681
1.2009354222
1.2243874432
1.1984295926
1.1964211110
1.1838817706
1.2254288826
1.2271128509
1.2261461361
1.1960304606
1.1937990288
1.1811037063
1.1856536276
1.1889414952
1.2252004249
1.2260333470
1.2232967973
1.2242910818
1.1742594335
1.2268003809
1.2275434722
1.1822733418
1.2257219569
1.2247946368
1.1838101283
1.2281372620
1.1996994917
1.2265357124
1.1938296176
1.1949641093
1.2281430800
1.1879580515
1.2273737419
1.2272683857
1.1944836542
1.2265259515
1.1928662598
1.1917423673
1.2258654032
1.2263982995
1.1962040621
1.1991735708
1.1993275938
1.1993214180
1.1991644792
1.1986194734
1.1992087847
1.1965492812
1.1972387152
1.2007319699
1.2002395716
1.2007058734
1.2007271791
1.1987869778
1.1970082111
1.1987606603
1.1950234570
1.1972356585
1.1986176449
1.1966650985
1.1949033119
1.1971680933
1.1999940247
1.1983594136
1.1942804887
1.1957768023
1.1990744638
1.1963838104
1.1957070353
1.1968382595
1.1942629530
1.1972436261
1.1970174191
1.2013224289
1.1970677596
1.1991440111
1.1950211554
1.1945060071
1.1966597967
1.2003922192
1.1980818050
1.2003205308
1.1989929548
1.2020924768
1.2055496658
1.1977236428
1.1958803362
1.2000899961
1.2061282454
1.1990740874
1.1957756062
1.2015998362
1.1951685750
1.1953741395
1.2013214406
1.2002520598
1.2074537758
1.1980548692
1.2035422480
1.1972379486
1.2012868938
1.1991320253
1.1992123851
1.2071102753
1.2073353008
1.1970668420
1.2029629436
1.2028236472
1.2012646057
1.2061039132
1.2020627779
1.2015340960
1.2048732549
1.2045220086
1.2000490075
1.2044424428
1.1950197123
1.2055329909
1.2062611801
1.2061179127
1.1989852622
1.2025493094
1.2074555193
1.2152310421
1.2139159957
1.1991983604
1.2035419939
1.2045320034
1.2071081997
1.2028791301
1.2035175954
1.2012283272
1.2066023014
1.2058047714
1.2144953442
1.2139443823
1.2071260684
1.2036482775
1.2039066843
1.2062615851
1.2084715262
1.2089768771
1.2025002722
1.2109537414
1.2092422811
1.2056288228
1.2020737967
1.2099833292
1.2041791289
1.2034705427
1.2044422003
1.2118727972
1.2061190903
1.2060694131
1.2091980529
1.2097284224
1.2110045689
1.2102729521
1.2045019048
1.2021897620
1.2107919220
1.2051022280
1.1950183940
1.2102754167
1.2045312588
1.2066037978
1.2081735967
1.2071264322
1.2132926724
1.2077233512
1.2147526946
1.2151414448
1.2038175629
1.2139259373
1.2048734438
1.2091392489
1.2133257539
1.2081684083
1.2152422246
1.2146605621
1.2115214428
1.2110558684
1.2021687617
1.2122343415
1.2110117413
1.2098998505
1.2086595925
1.2092472155
1.2068937933
1.2030229561
1.2084737488
1.2051038001
1.2073434221
1.2051908215
1.2107139276
1.2099849669
1.2118752610
1.2009497284
1.2091404589
1.2103804281
1.2041613259
1.2101181523
1.2089799624
1.2093985630
1.2080005409
1.2090848361
1.2034490249
1.2119564188
1.2133042212
1.2083675688
1.2071811698
1.2081717901
1.2050278770
1.2077253623
1.2131828235
1.2142965162
1.2128580109
1.2126806732
1.2081530033
1.2164338642
1.2141256903
1.2070833196
1.2062321182
1.2125043851
1.2090511579
1.2082853705
1.2147676246
1.2133131414
1.2137522220
1.2081685096
1.2164828646
1.2091432346
1.2114444974
1.2162319010
1.2122369135
1.2103848750
1.2130782412
1.2073455093
1.2079272982
1.2160057477
1.2086629288
1.2114153981
1.2030054580
1.2135457378
1.2068840821
1.2158760058
1.2100770220
1.2107164467
1.2128608106
1.2164846379
1.2100793970
1.2125064187
1.2090535302
1.2120646976
1.2118491823
1.2070846650
1.1940236907
1.2082882188
1.2126920837
1.2061114607
1.2073375678
1.2133988811
1.2166696444
1.2127532239
1.2110261825
1.2080072373
1.2143118279
1.1923029560
1.2127141674
1.2050129771
1.2135478204
1.2109949328
1.2153970559
1.1936018256
1.2155457488
1.2125904372
1.2139788492
1.2119999284
1.2101111745
1.2163884282
1.2152383683
1.2166077279
1.2136333730
1.2149917308
1.2092121960
1.2133192546
1.2117897319
1.2160221541
1.2155344851
1.2110598222
1.2157853193
1.2155137794
1.2100848921
1.1940246762
1.2118550555
1.2144547159
1.1922449279
1.2146609788
1.2125796956
1.1925834679
1.2122044652
1.2098868157
1.2147363047
1.1903214212
1.2132348976
1.1936041816
1.2152400175
1.2138897527
1.2156393190
1.1942904273
1.2092134694
1.2139822289
1.2118118693
1.1906018580
1.2154142968
1.2147838355
1.1888188892
1.2153229788
1.2125951859
1.2141838757
1.2149952033
1.2109561434
1.1913198394
1.2087544676
1.2149033132
1.2158760793
1.2157877576
1.2144597567
1.1929482408
1.2152306274
1.2158816202
1.2139068954
1.2125429387
1.2155316397
1.2157149437
1.1932410695
1.2143439095
1.2149794230
1.1930900051
1.1936825349
1.2155785644
1.2137167423
1.1942946820
1.1888175528
1.1964571362
1.1910903444
1.2132437833
1.2157284692
1.1913186877
1.1895390346
1.2159240701
1.2141531376
1.2147525864
1.1894758284
1.2150785017
1.1980582198
1.1912782555
1.2097983699
1.2146340488
1.1922438565
1.1949354176
1.2146998566
1.2159434563
1.1898876726
1.2157518230
1.2139083939
1.1945722381
1.2156044544
1.2157201971
1.2137468657
1.2158843529
1.2154957146
1.2155451309
1.2157785250
1.1931879033
1.1929159205
1.2142713054
1.1930885196
1.2149191173
1.1929481887
1.2158776141
1.2087499558
1.2143453957
1.2154648574
1.2150741411
1.2152318992
1.2159790417
1.1919406702
1.2158509940
1.1890365562
1.2129787320
1.1912778492
1.1895375018
1.2159897229
1.2157551277
1.2157628627
1.1989995777
1.2160181697
1.1956498418
1.1901489710
1.2159262730
1.1922428828
1.2141644722
1.1899586748
1.1906582853
1.2157535914
1.2147012005
1.1998843895
1.2146841665
1.1971160612
1.2157300829
1.1891682326
1.1877796145
1.2155825193
1.2159316541
1.1929159969
1.2128281346
1.2157217488
1.1911941538
1.1931881359
1.2137579967
1.1875084773
1.2154966550
1.2157997105
1.1917537054
1.2150757656
1.2028898795
1.2118130613
1.2154524327
1.2009034037
1.1891662215
1.2159913055
1.2164076700
1.1899563715
1.2157644046
1.2146858646
1.2159648983
1.1878632676
1.2157567293
1.2129856228
1.1889578628
1.2158058774
1.2153175682
1.1897639732
1.2158775992
1.2048689293
1.2162020178
1.1887330248
1.2116899724
1.2154332681
1.1877302715
1.1867979723
1.2017876540
1.2156677063
1.2128326313
1.1880096286
1.1866175867
1.1911929919
1.2067598582
1.2153950330
1.2156541701
1.1913427764
1.1878608506
1.1889557505
1.1876287047
1.2162040976
1.2159668246
1.1902761778
1.2165834909
1.2037398504
1.2153191778
1.2154497102
1.2118142194
1.1881133463
1.1874624607
1.2163479485
1.1912276822
1.2086239441
1.2056752852
1.2158854381
1.2154344859
1.1868036738
1.2153963458
1.2157028106
1.2154971150
1.2106608329
1.1866721415
1.2156384750
1.2105121189
1.1915659599
1.1974064335
1.1923842762
1.1945982252
1.2075778106
1.1874600346
1.2092923717
1.1889028062
1.2007219929
1.1926338080
1.1913412654
1.2063465884
1.1880402929
1.1887695794
1.2165857046
1.1914869515
1.1901792666
1.1959818486
1.1934032622
1.2082515988
1.1989812667
1.1923886485
1.2044440917
1.1881107379
1.1895483518
1.1902734801
1.2160102778
1.2101530330
1.2094788580
1.2157049662
1.2171440004
1.2025586251
1.2154987479
1.2161627635
1.2123691426
1.2165603749
1.2174329612
1.2170544301
1.2144946854
1.2111717979
1.2173752583
1.2155392710
1.2167431371
1.2134957979
1.2159464370
1.2173143072
1.2170174520
1.2153439276
1.2055230517
1.1982419161
1.1937101110
1.1893589251
1.2014560449
1.2069744750
1.1926323644
1.2092923318
1.1923833484
1.1902470853
1.2099140836
1.1955816368
1.1928096110
1.1889000737
1.1998999183
1.1938979874
1.1966522758
1.1907102658
1.2036219185
1.1968556412
1.1935122841
1.1887666245
1.1997782230
1.2050860856
1.1915535774
1.2074059423
1.2088770084
1.1944421416
1.1915740682
1.1981715089
1.1934026953
1.1952609596
1.1901760124
1.2166506173
1.2032369865
1.2107695830
1.2129976222
1.2151473631
1.2167943117
1.2136651789
1.2173198293
1.2167589035
1.2173115883
1.2113731315
1.2157880101
1.2178284791
1.2178962455
1.2182448967
1.2017284318
1.2160129925
1.2171847859
1.2154763105
1.2161374642
1.2117781387
1.2141305631
1.2160248217
1.2174382962
1.2125411824
1.2172011863
1.2170578433
1.2166113326
1.2101550644
1.2163339684
1.2178180097
1.2181656849
1.2181302274
1.2169998140
1.2146547881
1.1989441701
1.1947275442
1.1920257763
1.1902440723
1.1939681688
1.1975389875
1.2061500782
1.2104854074
1.1964237973
1.2099172849
1.1948680168
1.2020765184
1.2075499122
1.2006956118
1.1937085087
1.1976080343
1.1945668076
1.1915704834
1.1928946700
1.1961725048
1.2042871560
1.2094513589
1.1953982449
1.2080294776
1.1944409372
1.2004384907
1.2056641667
1.1990417533
1.1927531590
1.2135828367
1.2161170445
1.2157739206
1.2163306308
1.2120244549
1.2190735393
1.2173900173
1.2038281434
1.2179756526
1.2181397958
1.2186773262
1.2181954672
1.2113361864
1.2024570482
1.2174736214
1.2143055956
1.2186317936
1.2174961292
1.2147337546
1.2152893018
1.2166869691
1.2169917121
1.2107742499
1.2189923817
1.2168337761
1.2177724305
1.2179966875
1.2187007520
1.2174736979
1.2123382368
1.2181297841
1.2132039087
1.2189506813
1.2178356752
1.2215043798
1.2174258614
1.2110116617
1.2207040639
1.1983058306
1.1947254175
1.2211856137
1.2221805081
1.2025833306
1.2170223325
1.2080725811
1.2013645558
1.2206982181
1.2214828832
1.2217801817
1.1932512122
1.2067234946
1.2104909017
1.1971017945
1.1994943526
1.1957885483
1.2151013277
1.2145500055
1.2193157231
1.1949973056
1.2190869173
1.2217716695
1.1956225524
1.2213344854
1.2165668121
1.2099787388
1.2201179727
1.1969888715
1.1938689217
1.2206292444
1.2224093832
1.2009598438
1.2181076870
1.2061771174
1.1997655827
1.2213069817
1.2210791507
1.2212317369
1.1928910042
1.2048729689
1.2086045927
1.1961865045
1.1982062373
1.1953963343
1.2141371500
1.2155178961
1.2185826403
1.1941053208
1.2199536723
1.2220683806
1.1954771083
1.2029603335
1.2191612008
1.2118582235
1.2181106931
1.2100232092
1.2195631533
1.2181311736
1.2183494371
1.1965669564
1.1962920589
1.1983821684
1.2198995900
1.1968929683
1.2059548450
1.2141278482
1.2190035140
1.2126225182
1.2068701407
1.2187779361
1.2108378033
1.2170957372
1.2043335798
1.2193537985
1.2030774216
1.2149294589
1.2167869017
1.2018315609
1.2163656892
1.2011310287
1.2184653482
1.2128590880
1.2175169335
1.2111433901
1.2196286291
1.2188165923
1.2186875836
1.1969776350
1.1967700760
1.1969384103
1.2198722658
1.1979734993
1.2071489729
1.2153003358
1.2188299287
1.2113420291
1.2050882219
1.2185357602
1.2091842444
1.2178185227
1.2197217968
1.2138211547
1.2159262173
1.2030564186
1.2173117732
1.2154042406
1.2229679559
1.2199958600
1.2204573744
1.2158699262
1.2170252162
1.2182940610
1.2199220156
1.1989262719
1.2211672940
1.2216762301
1.2204983145
1.2211576795
1.2151649004
1.2019030478
1.2206831539
1.2160642337
1.2145521182
1.2176301263
1.2127756535
1.2177551255
1.1965656776
1.2213101363
1.2217899671
1.2188246974
1.2228822008
1.2206780579
1.2218500603
1.2197398022
1.1943600841
1.2136742481
1.2217767077
1.2072393614
1.2137891031
1.2141751251
1.2236873536
1.2232583708
1.2176331959
1.2202952884
1.2231471215
1.2207024832
1.2221871571
1.2236906714
1.1956201094
1.2110176330
1.2190902936
1.2194194894
1.2221893237
1.2163178875
1.2234093163
1.2203398204
1.2218389137
1.2202071082
1.2148991268
1.2158381825
1.2174223553
1.2208526047
1.1976697559
1.2211967227
1.2223280305
1.2207474830
1.2161389177
1.2003406095
1.2211830458
1.2171051090
1.2131614105
1.2131596903
1.2188894870
1.1961842887
1.2216049128
1.2220985200
1.2194847096
1.2224035026
1.2212190788
1.2190466769
1.1941017228
1.2149177737
1.2189160553
1.2213137262
1.2053821799
1.2127781477
1.2233542981
1.2229689556
1.2184318280
1.2195355413
1.2228067025
1.2199571930
1.2220738654
1.2240408720
1.1948716332
1.2091298914
1.2181103976
1.2200821791
1.1993785072
1.2180258855
1.2238698888
1.2247421879
1.2198822514
1.2035927608
1.1964801778
1.2188140880
1.1979728302
1.2188831719
1.2180285791
1.2155193359
1.2097366242
1.2253034184
1.1963300216
1.1962902741
1.1971594598
1.2192695402
1.1999179754
1.2023164754
1.2248905813
1.2195724739
1.1963308783
1.2214724629
1.2240055299
1.2029608101
1.1974900398
1.2088726326
1.2088736410
1.2058218159
1.2131722001
1.2174302764
1.2245390138
1.2037224395
1.2080238833
1.1953121248
1.1965884629
1.2133436361
1.2181603574
1.1961314585
1.1960504940
1.2096091305
1.1960051084
1.2219281025
1.1981763116
1.2187556973
1.2244464128
1.2243335194
1.2196727644
1.1968511232
1.2181912152
1.1969374687
1.2180049364
1.2143934399
1.2080244892
1.2252236787
1.1957051784
1.1967681925
1.1967631333
1.2195738200
1.1994029224
1.2007633157
1.2251836587
1.2192817168
1.1961298807
1.2223746349
1.2234585294
1.2018192260
1.1983814976
1.2071495049
1.2011907407
1.2040128637
1.2118636511
1.2165369969
1.2247800024
1.2018312223
1.1951686410
1.1969756770
1.1974503888
1.2115020670
1.2193685037
1.1965726023
1.1963322073
1.2077012396
1.2212014789
1.2094309827
1.1963277582
1.2023165284
1.2151658485
1.1953088378
1.2216792172
1.2144936296
1.2115063084
1.2040830746
1.2162152932
1.1951653937
1.1964127749
1.1994778281
1.2229720665
1.2032962123
1.2185298483
1.1955109203
1.2077037883
1.2052690900
1.2185324277
1.2185861022
1.2177568018
1.1973724076
1.2213041024
1.2206426939
1.2147194030
1.2141397968
1.2229789911
1.2010342148
1.2001007321
1.2229718870
1.2210849531
1.2131706492
1.1948661964
1.2154010235
1.1968015350
1.2199243257
1.2198372092
1.2134719741
1.2121467060
1.2224101109
1.2119570017
1.1924516000
1.2207727648
1.2238505659
1.2155200042
1.2218800805
1.2240501919
1.2089863309
1.1953603842
1.2218840147
1.2227779259
1.1993786253
1.2083856419
1.2204373420
1.1978226920
1.1971584574
1.2222181036
1.2075628073
1.1957021764
1.2007633242
1.2136934544
1.1951652716
1.2208551925
1.2134731223
1.2197139937
1.2096124699
1.2054176373
1.2171371160
1.1966819676
1.1964711085
1.2009353372
1.2016031765
1.1951095467
1.2058232998
1.2031902453
1.2167552277
1.2193505751
1.2165170417
1.1949650383
1.2217441042
1.2229708701
1.2231545526
1.1987282306
1.1988316067
1.2223886071
1.2114826535
1.1943343054
1.1966155281
1.2188913974
1.2240438360
1.2136928100
1.2132314800
1.2109121984
1.1938308227
1.2234137878
1.2237969755
1.2070421574
1.1936315405
1.2224424984
1.2236958123
1.1981761576
1.2095906449
1.2211350562
1.1970841343
1.1967611075
1.2203461251
1.2040134289