<VTKFile type="UnstructuredGrid" version="0.1">
	<UnstructuredGrid>
		<Piece NumberOfPoints="1862" NumberOfCells="3498">
			<CellData>
				<DataArray type="Int32" Name="type" NumberOfComponents="1" Format="ascii">
0
0
0
0
0
0
0
0
0
0
0
0
0
0
0
0
1
0
0
1
0
0
0
0
0
0
0
0
0
0
0
0
0
1
0
0
0
0
0
0
0
0
0
0
0
0
0
0
0
0
1
0
0
0
0
0
0
0
0
0
0
1
0
0
0
0
0
0
0
0
0
0
0
0
0
0
0
0
0
0
0
0
0
0
0
0
0
0
0
0
0
0
0
0
0
0
0
0
0
0
0
0
0
0
0
0
0
0
0
0
0
0
0
0
0
0
0
0
0
0
0
0
0
1
0
0
0
0
0
0
0
0
0
0
0
0
0
0
0
0
0
0
0
0
0
0
0
0
0
0
0
1
0
1
1
0
0
0
0
0
0
0
0
0
0
0
0
0
1
0
1
0
0
0
0
1
0
0
0
0
0
0
0
0
1
1
0
0
0
0
0
1
0
0
0
0
0
0
0
0
1
0
0
0
0
0
0
0
0
0
0
0
0
0
0
0
0
0
0
0
0
0
0
0
0
0
0
0
0
0
0
0
0
1
0
0
0
0
0
0
0
0
0
0
0
0
0
0
0
0
0
0
0
0
0
0
0
0
0
0
0
0
0
0
0
0
0
0
0
0
0
0
0
0
0
0
0
0
0
0
0
1
0
0
0
0
0
0
0
0
0
0
0
0
0
0
0
0
0
0
0
0
0
0
0
0
0
0
0
0
0
0
0
0
0
0
0
0
0
0
0
0
0
0
0
0
0
0
0
0
0
0
1
0
0
0
0
0
0
0
0
0
0
0
0
0
0
0
0
0
0
0
0
0
0
0
0
0
0
0
0
0
0
0
0
0
0
0
0
0
0
0
0
0
0
0
0
0
0
0
0
0
0
0
0
0
0
0
0
0
1
0
0
0
0
0
0
0
0
0
0
0
0
0
0
0
0
0
0
0
0
0
0
0
0
0
0
0
0
0
0
0
0
0
0
0
0
0
0
0
0
0
0
0
0
0
0
0
0
0
0
0
0
0
0
0
0
0
0
0
0
0
0
0
0
0
0
0
0
0
0
0
0
0
0
0
0
0
0
0
0
0
0
0
0
0
0
0
0
0
0
0
0
0
0
0
0
0
0
0
0
0
0
0
0
0
0
0
0
0
0
0
0
0
0
0
0
0
0
0
0
0
0
0
0
0
0
0
0
0
0
0
0
1
0
0
0
0
0
0
0
0
0
0
0
0
0
0
0
0
0
0
0
1
0
0
0
0
0
0
0
0
0
0
0
0
0
0
0
0
0
0
0
0
0
0
0
0
0
0
0
0
0
0
0
0
0
0
0
0
0
0
0
0
0
0
0
0
0
0
0
0
0
0
0
0
0
1
0
0
0
0
0
0
0
0
0
0
0
0
0
0
0
0
0
0
0
0
0
0
0
1
0
0
0
0
0
0
0
0
0
0
0
0
0
0
0
0
0
0
0
1
0
0
0
1
0
0
0
0
0
0
0
0
0
0
0
0
0
0
0
0
0
0
0
0
0
0
0
0
0
1
0
0
0
0
0
0
0
1
0
0
0
0
0
0
0
0
0
0
0
0
0
0
0
0
0
0
0
0
0
0
0
0
0
0
1
0
0
0
0
0
0
0
1
0
0
0
0
0
0
1
0
0
0
0
0
0
0
0
0
0
0
0
0
0
0
0
0
0
0
0
0
0
0
0
0
0
0
0
0
0
0
0
0
0
0
0
0
0
1
0
0
0
0
0
1
0
0
0
0
0
0
0
1
0
0
0
0
0
0
0
0
0
0
0
0
0
1
0
0
0
0
0
0
0
0
0
0
0
0
0
0
0
0
0
0
0
0
0
0
0
0
0
0
0
0
0
0
0
0
0
0
0
0
0
0
0
0
0
0
0
0
0
0
0
0
0
0
0
0
0
1
0
0
0
0
0
0
0
0
0
0
0
0
0
0
0
0
0
0
0
1
0
0
0
0
0
0
0
0
0
1
0
0
0
0
0
0
0
0
0
0
0
0
0
0
0
0
0
0
0
0
0
0
0
0
0
0
0
0
0
1
0
1
0
0
0
0
0
0
0
0
0
0
0
0
0
0
0
0
0
0
0
0
0
0
0
0
0
0
0
1
0
0
0
1
0
0
0
0
0
0
0
0
0
0
0
0
0
0
0
0
0
0
0
0
0
0
0
0
0
0
0
0
1
0
0
0
0
0
0
0
0
0
0
0
0
0
0
0
0
0
0
0
0
0
0
0
0
0
1
0
0
0
0
0
0
0
0
0
0
0
0
0
0
0
0
0
0
0
0
0
0
0
1
0
0
0
0
0
0
1
0
0
0
0
0
0
0
0
0
0
0
1
0
0
0
0
0
0
0
0
0
0
0
0
0
0
0
0
0
0
0
0
1
0
0
0
0
0
0
0
0
0
0
0
1
0
0
0
0
0
0
0
0
0
0
0
0
0
0
0
0
0
0
0
0
0
1
0
0
0
0
0
0
0
0
0
1
1
0
1
0
1
0
0
0
0
0
0
0
0
0
0
0
1
0
0
0
0
0
1
1
0
0
0
0
0
0
1
0
0
0
0
0
1
1
1
0
0
0
0
0
0
0
0
0
0
0
0
1
1
0
0
1
0
0
0
0
0
1
0
0
0
1
0
1
0
0
0
0
0
0
0
1
0
0
0
0
0
0
0
1
0
0
1
0
0
0
0
0
0
0
0
0
0
0
0
0
0
0
1
0
0
0
0
0
0
0
0
0
0
0
0
0
0
0
0
0
0
0
0
0
0
0
0
0
0
0
0
0
0
0
0
0
0
0
0
1
0
0
0
0
0
0
1
0
0
0
1
0
0
0
0
0
0
0
0
0
0
0
1
0
0
0
0
0
0
0
0
0
0
0
0
0
0
0
0
0
0
0
0
0
0
0
0
0
0
0
0
0
0
0
0
0
0
0
0
0
0
0
0
1
1
0
0
0
0
0
0
0
0
0
0
0
0
0
1
0
0
0
0
0
0
0
0
0
0
0
0
0
0
0
0
0
0
0
0
0
0
0
0
0
0
0
0
0
0
0
0
0
0
0
0
0
0
0
0
0
0
0
0
0
0
0
0
0
0
0
0
0
0
0
0
0
0
0
0
0
0
0
0
0
0
0
0
0
0
0
0
1
1
0
0
0
0
0
0
0
0
1
0
0
0
0
0
0
0
0
0
0
0
0
0
0
0
0
0
0
0
0
0
0
0
1
0
0
0
0
0
0
0
0
0
0
0
0
0
0
0
0
1
0
0
0
0
0
0
0
0
0
0
0
0
0
0
0
0
0
0
0
0
0
0
0
0
0
0
0
0
0
0
0
0
0
0
0
0
0
0
0
0
0
0
0
0
0
0
0
0
0
0
0
0
0
0
0
0
0
0
0
0
0
0
0
0
0
0
0
0
0
0
0
0
0
0
0
0
0
0
0
0
0
0
0
0
0
0
0
0
0
0
1
1
0
0
0
0
0
1
0
0
0
0
0
0
0
0
0
0
0
0
1
0
0
0
0
0
0
0
0
0
0
0
0
0
0
0
0
0
0
0
0
0
0
0
0
0
0
0
0
0
0
0
0
0
0
0
0
0
0
0
0
0
0
0
0
0
0
0
0
0
0
0
0
0
1
0
1
0
0
0
0
0
0
0
0
0
0
0
0
0
0
0
0
0
0
1
0
0
0
0
0
0
0
0
0
0
0
0
0
0
0
0
0
0
0
0
0
0
0
0
0
0
0
0
0
0
0
0
0
0
0
0
0
0
0
0
0
0
0
0
0
0
0
0
0
0
0
0
0
0
0
0
0
0
0
0
0
0
0
0
0
0
0
0
0
0
1
0
0
0
0
0
0
0
0
0
0
1
0
0
0
0
0
0
0
0
0
0
0
0
0
0
0
0
0
0
0
0
0
0
0
0
0
0
0
0
0
0
0
0
0
0
0
0
0
1
0
0
0
0
0
0
0
0
0
0
0
0
0
0
0
0
0
0
0
0
0
0
0
0
0
0
0
0
0
0
0
0
0
0
0
0
0
0
0
0
0
0
0
0
0
0
0
0
0
0
0
0
0
0
0
0
0
0
0
0
0
0
0
0
0
0
0
0
0
0
0
0
0
0
0
0
0
0
0
0
0
1
0
0
0
0
0
0
0
0
0
0
0
0
0
0
0
0
0
0
0
0
0
0
0
0
0
0
0
0
0
0
0
0
0
0
0
0
0
0
0
0
0
0
0
0
0
0
0
0
0
0
0
0
0
0
0
0
0
0
0
0
0
0
0
0
0
0
0
0
0
0
0
0
0
0
0
0
0
0
0
0
0
0
0
0
0
0
0
0
0
0
0
0
0
0
0
0
0
0
0
0
0
0
0
0
0
0
0
0
0
0
0
0
0
0
0
0
0
0
0
0
0
0
0
1
0
0
0
0
0
0
0
0
0
0
0
0
0
0
0
0
0
0
0
0
0
0
0
0
0
0
0
0
0
0
0
0
0
0
0
0
0
0
0
0
0
0
0
0
0
0
0
0
0
0
0
0
0
0
0
0
0
0
0
0
0
0
0
0
0
0
0
0
0
0
0
0
0
0
0
0
0
0
0
0
0
1
0
0
0
0
0
0
0
1
0
0
0
0
0
0
0
0
0
0
0
0
0
0
0
0
0
0
0
0
0
0
0
0
0
0
0
0
0
0
0
0
0
0
0
0
0
1
0
0
0
0
0
0
0
0
0
0
0
0
0
0
0
0
0
0
0
0
0
1
0
0
0
0
0
0
0
0
0
0
0
0
1
1
0
0
0
0
0
0
0
0
0
0
0
0
0
0
0
1
1
0
1
0
0
0
0
0
0
0
0
0
1
0
0
0
0
0
0
1
0
0
0
0
0
0
0
0
0
0
1
0
0
0
0
1
0
1
0
0
0
0
0
0
0
1
0
0
0
1
0
0
0
1
0
1
1
0
0
1
1
0
0
0
1
0
0
0
1
0
0
0
0
0
0
0
0
0
1
0
0
0
0
0
0
1
0
0
0
0
0
0
0
0
0
0
0
0
0
0
0
0
0
0
0
0
0
0
0
0
0
0
0
1
0
0
1
0
0
0
0
0
0
0
0
0
0
0
0
0
0
0
0
0
0
1
0
0
1
0
0
0
0
0
0
0
0
0
0
0
1
0
0
1
0
0
0
0
0
0
0
0
0
0
0
1
1
0
0
0
0
0
0
0
0
0
0
0
0
1
0
0
0
0
0
0
0
0
0
0
0
0
0
0
0
0
0
1
0
0
0
0
0
0
0
0
0
0
0
0
0
0
0
0
0
1
0
0
0
0
0
0
0
0
0
0
0
0
0
0
0
0
0
0
0
0
0
0
0
0
0
0
0
0
0
0
0
0
0
0
0
0
0
0
0
0
1
0
0
0
0
0
0
0
0
0
0
0
0
0
0
0
0
0
0
0
0
0
0
0
0
0
0
0
0
0
0
0
0
0
0
0
0
0
0
0
0
0
0
0
0
0
1
0
0
0
0
0
0
0
0
0
0
0
0
0
0
0
0
0
0
0
0
0
0
0
0
0
0
0
0
0
0
0
0
0
0
0
0
0
0
0
0
0
0
0
0
0
0
0
1
0
0
0
0
0
0
0
0
0
0
1
0
0
0
0
0
0
0
0
0
0
0
0
0
0
0
1
0
0
1
0
0
0
0
0
0
0
0
0
0
0
0
0
0
0
0
0
0
0
0
0
0
0
1
0
0
0
0
0
0
0
0
0
0
0
0
0
0
0
0
0
0
0
0
0
0
0
0
0
0
0
0
0
0
0
0
0
0
0
1
0
0
0
0
0
0
0
0
0
0
0
0
0
0
0
0
0
0
0
0
0
0
0
0
0
0
0
0
0
0
0
0
0
0
0
0
0
0
0
0
0
0
0
0
0
0
0
0
0
0
0
0
0
0
0
0
0
0
0
0
0
0
0
0
0
0
0
0
0
0
0
0
0
0
0
0
1
0
0
0
0
0
0
0
0
0
0
0
0
0
0
0
0
0
0
0
0
0
0
0
0
0
0
0
0
0
0
0
0
0
0
0
0
0
0
0
1
0
0
0
0
0
0
0
0
0
0
0
0
1
1
0
0
0
0
0
0
0
0
0
0
0
0
0
0
0
0
0
0
0
0
0
0
0
0
0
0
0
0
0
0
0
0
0
0
0
0
0
0
0
0
0
0
0
0
0
0
0
0
0
0
0
0
0
0
0
0
0
0
0
0
0
0
0
0
0
0
0
0
0
0
0
0
0
0
0
0
0
0
0
0
0
0
0
0
0
0
0
0
0
0
0
0
0
0
0
0
0
0
0
0
0
1
0
1
0
0
0
0
0
0
0
1
1
1
1
0
0
0
0
0
0
0
0
0
0
0
0
0
0
0
0
0
0
0
0
0
0
0
0
0
0
0
0
1
1
0
0
0
0
0
0
0
0
0
0
0
0
0
0
0
0
0
0
1
0
0
0
0
0
0
0
1
1
0
1
1
0
0
1
0
0
0
0
0
0
0
1
0
1
0
0
0
0
0
0
0
0
0
0
0
0
0
0
0
0
0
0
0
0
0
0
0
0
0
0
0
1
1
0
0
0
1
1
0
0
0
0
1
0
0
1
0
1
0
0
0
0
0
1
0
0
0
1
0
0
0
0
0
0
0
0
0
0
0
0
0
0
0
0
0
0
0
0
0
0
0
0
0
0
0
1
0
0
0
0
0
0
1
0
0
0
0
0
0
0
0
0
0
0
0
0
0
0
0
0
0
0
0
0
0
0
0
0
0
0
0
0
1
0
1
0
0
0
0
0
0
0
1
0
0
0
0
0
0
0
0
0
0
0
1
0
0
0
0
0
0
0
0
0
1
0
0
0
0
0
0
0
1
0
0
0
0
0
0
0
1
0
0
0
0
0
0
0
0
0
0
0
0
0
0
0
0
0
0
0
1
0
1
0
0
0
0
0
1
0
0
0
0
0
0
0
0
0
0
0
0
0
0
0
0
0
0
0
0
0
0
0
0
0
1
0
1
0
0
0
0
0
0
0
0
0
1
0
0
0
0
0
1
0
0
0
0
0
0
0
0
0
0
0
0
0
0
0
1
0
0
0
0
0
0
0
0
1
0
0
0
0
0
0
0
0
0
0
0
0
0
0
0
0
0
0
0
0
0
0
0
0
0
0
0
0
0
0
1
0
0
0
0
0
0
0
0
0
0
0
0
0
0
0
0
1
0
0
0
0
0
0
0
0
1
0
0
0
0
0
0
0
0
0
1
0
0
0
0
0
1
0
0
0
0
0
0
0
0
0
0
0
0
0
0
0
0
0
0
0
1
0
0
0
0
0
0
1
0
0
0
0
0
0
0
0
1
0
0
0
0
0
0
0
0
0
0
0
0
0
0
1
0
0
1
0
0
0
1
0
0
0
0
0
0
0
0
0
0
0
0
0
0
0
0
1
0
0
0
0
0
0
0
0
0
0
1
0
1
0
0
0
0
0
0
1
0
0
0
0
0
0
0
0
0
0
0
0
0
0
0
0
0
0
0
0
0
0
0
0
0
0
0
1
1
0
0
0
0
0
0
1
0
0
0
0
0
0
0
0
0
0
0
0
0
1
0
0
0
0
0
0
0
1
0
0
0
0
0
0
0
0
0
0
0
0
0
0
0
0
0
0
0
0
0
0
0
0
0
0
0
1
0
0
0
0
0
0
0
0
0
0
1
0
0
1
0
0
0
0
0
0
0
0
0
0
0
0
0
0
0
0
0
0
0
0
0
0
0
0
0
0
0
0
0
1
0
0
0
0
0
0
0
1
0
0
0
0
0
0
0
1
0
0
0
0
1
0
0
0
0
0
0
0
0
0
0
0
1
0
1
0
0
0
1
0
				</DataArray>
				<DataArray type="Float64" Name="h" NumberOfComponents="1" Format="ascii">
1.1731020257
1.1731029373
1.1733347439
1.1730239599
1.1734213418
1.1732492243
1.1731903888
1.1729506987
1.1730801987
1.1727693264
1.1729221564
1.1731759496
1.1730411024
1.1728406242
1.1729745663
1.1730151346
1.1731055794
1.1728522669
1.1731568505
1.1729338784
1.1734208233
1.1732190755
1.1734630380
1.1735643568
1.1729899914
1.1729033144
1.1735852724
1.1745662175
1.1735925168
1.1727960172
1.1728456118
1.1734097987
1.1732704635
1.1732598071
1.1740389528
1.1737564062
1.1736939961
1.1736965141
1.1746444160
1.1735737071
1.1735552817
1.1744047968
1.1735324180
1.1738320826
1.1737290484
1.1742856268
1.1736438129
1.1741792607
1.1771870449
1.1770764999
1.1735000653
1.1739760363
1.1737698108
1.1753363484
1.1741351440
1.1737974514
1.1741874746
1.1745738703
1.1749294681
1.1749808708
1.1750951616
1.1748345419
1.1768445322
1.1739175752
1.1740600627
1.1750725974
1.1769621554
1.1767162497
1.1749395650
1.1746500161
1.1749055763
1.1740490048
1.1739551383
1.1755832677
1.1752302348
1.1753711553
1.1746612797
1.1752871721
1.1743992830
1.1750564974
1.1754985498
1.1752894042
1.1780011518
1.1765870008
1.1748653760
1.1755428054
1.1756794728
1.1765060579
1.1756191378
1.1779758369
1.1760943159
1.1753075583
1.1754420646
1.1779037594
1.1757119395
1.1754683065
1.1763614537
1.1748158031
1.1749695322
1.1758071612
1.1778250156
1.1753963460
1.1758671298
1.1742980848
1.1726584603
1.1769151009
1.1761378349
1.1774068984
1.1753687212
1.1756227062
1.1776827190
1.1777733739
1.1758565057
1.1764284851
1.1759989817
1.1767037674
1.1757592322
1.1726744638
1.1767942143
1.1761324504
1.1726881203
1.1762494317
1.1759299305
1.1726611685
1.1761836536
1.1772726288
1.1758938281
1.1725583155
1.1763547707
1.1769352228
1.1763988281
1.1760693156
1.1760321314
1.1763487609
1.1726961130
1.1765257836
1.1727984585
1.1766180454
1.1757445601
1.1732369108
1.1724682026
1.1726921460
1.1765277334
1.1735171559
1.1758680166
1.1761527962
1.1730024715
1.1773014231
1.1726265036
1.1772254231
1.1727817055
1.1764664443
1.1767217588
1.1768949600
1.1755801933
1.1769775579
1.1766171351
1.1726080691
1.1770339931
1.1725106443
1.1734180826
1.1771034076
1.1729552253
1.1725491144
1.1725418279
1.1773291634
1.1738553875
1.1731545034
1.1727147305
1.1770274409
1.1765940958
1.1726118213
1.1767451606
1.1725899260
1.1740913919
1.1763401314
1.1737272882
1.1778727432
1.1765007908
1.1725132881
1.1771102209
1.1745084565
1.1724698824
1.1762761889
1.1724930189
1.1728411063
1.1742489743
1.1767629847
1.1727341358
1.1728831008
1.1749734771
1.1765488858
1.1725464012
1.1746963974
1.1763678330
1.1777712620
1.1725353844
1.1754864687
1.1751896659
1.1774357854
1.1729024527
1.1765634862
1.1728453967
1.1769919713
1.1760539562
1.1723907690
1.1732163441
1.1727971621
1.1757286003
1.1737967618
1.1750327944
1.1726627543
1.1724866682
1.1723031626
1.1729870487
1.1755426578
1.1734850601
1.1724958032
1.1745709175
1.1724100380
1.1763257731
1.1782889884
1.1741584342
1.1780214488
1.1769421614
1.1779936936
1.1783568522
1.1775181931
1.1766805761
1.1783505779
1.1774731061
1.1781789694
1.1772194215
1.1777338192
1.1781826108
1.1778019004
1.1753189372
1.1734821701
1.1723546180
1.1741106499
1.1753849616
1.1729982321
1.1724715263
1.1740280634
1.1729525188
1.1734054455
1.1724400552
1.1748391762
1.1732222278
1.1726266594
1.1737767157
1.1749130614
1.1725904969
1.1758505805
1.1759063381
1.1723804882
1.1736950755
1.1731569808
1.1723056500
1.1782893887
1.1744886958
1.1773615095
1.1779569122
1.1784908503
1.1772598082
1.1784058694
1.1785506003
1.1767222938
1.1779839712
1.1788218568
1.1789171575
1.1744090927
1.1785106095
1.1778532077
1.1781047149
1.1770772026
1.1776568849
1.1782446117
1.1786845045
1.1769836360
1.1785399099
1.1782875318
1.1782321122
1.1787443849
1.1789007642
1.1784253288
1.1775505200
1.1737948365
1.1725696693
1.1726402385
1.1736972690
1.1756763461
1.1732614297
1.1731808001
1.1744530658
1.1757437120
1.1743552833
1.1735136152
1.1728303570
1.1723829009
1.1725578415
1.1734225215
1.1751869702
1.1762689146
1.1762181146
1.1741065165
1.1752681199
1.1740067090
1.1727617250
1.1777669633
1.1782936814
1.1784030214
1.1785535511
1.1771085840
1.1794960117
1.1787878381
1.1748390223
1.1790597818
1.1791379534
1.1747475886
1.1789765085
1.1776911984
1.1793630081
1.1789780443
1.1780853066
1.1779949486
1.1787062110
1.1788032141
1.1785657401
1.1789531495
1.1791027438
1.1793351357
1.1788655317
1.1774590122
1.1791983653
1.1773930606
1.1794640347
1.1740277702
1.1810242526
1.1748168197
1.1760987164
1.1747035653
1.1727782135
1.1760341982
1.1735846106
1.1741490597
1.1734719762
1.1728853674
1.1814734928
1.1791900702
1.1766198898
1.1807514703
1.1737370803
1.1729990701
1.1818244617
1.1744678769
1.1799258000
1.1756271141
1.1743480684
1.1814606855
1.1812689769
1.1817231313
1.1725601089
1.1755422365
1.1765781463
1.1738555508
1.1783916581
1.1791113705
1.1800185556
1.1728148121
1.1807961574
1.1819606410
1.1731030691
1.1797500826
1.1792923613
1.1794635741
1.1795759854
1.1745647484
1.1800855258
1.1781514940
1.1774758136
1.1796187388
1.1791470225
1.1752014260
1.1799072880
1.1750999743
1.1781078382
1.1787503827
1.1788392404
1.1762332044
1.1794703345
1.1778186857
1.1790421236
1.1779830356
1.1799465439
1.1797144096
1.1751712401
1.1756393338
1.1758272495
1.1771249378
1.1784960862
1.1796808351
1.1767783648
1.1794872340
1.1775262927
1.1794022593
1.1800333988
1.1777845803
1.1784339264
1.1764832094
1.1791668761
1.1787800638
1.1805422191
1.1794740350
1.1743916945
1.1814380425
1.1808452292
1.1750660744
1.1810445379
1.1788637637
1.1786153552
1.1780408701
1.1738180425
1.1814163190
1.1819402516
1.1799756172
1.1806577823
1.1730581201
1.1817778263
1.1763832680
1.1796089971
1.1823043906
1.1811821573
1.1820545404
1.1803725711
1.1804051763
1.1829381609
1.1807319734
1.1808130916
1.1787877698
1.1797084771
1.1814353368
1.1740953952
1.1823279826
1.1795261717
1.1747128503
1.1792493806
1.1804114568
1.1802859978
1.1822472615
1.1815683714
1.1804070927
1.1728168851
1.1784833618
1.1758961531
1.1780412989
1.1830060495
1.1826046145
1.1806788673
1.1830067844
1.1733031515
1.1769219891
1.1747811735
1.1797660204
1.1754585093
1.1797957879
1.1796250911
1.1785015696
1.1775010929
1.1742123703
1.1801909541
1.1754339293
1.1801797195
1.1762393525
1.1778164045
1.1791990750
1.1837042238
1.1766154712
1.1734043599
1.1748777734
1.1751792621
1.1772410943
1.1744906349
1.1800230886
1.1836994169
1.1835729074
1.1802653480
1.1754317673
1.1795173605
1.1761569919
1.1800125371
1.1781505810
1.1841447910
1.1736711757
1.1751724457
1.1760189926
1.1750924804
1.1841399074
1.1800204012
1.1758240335
1.1823925676
1.1830352021
1.1764217390
1.1758281395
1.1771253914
1.1758139933
1.1788556838
1.1731408820
1.1778188386
1.1806654000
1.1754307153
1.1767143972
1.1816700204
1.1754349125
1.1789056084
1.1734062012
1.1819036291
1.1792344570
1.1735835298
1.1755741168
1.1767152358
1.1801957398
1.1798896701
1.1814100442
1.1749564886
1.1826697350
1.1767843240
1.1809326063
1.1783827799
1.1767599322
1.1819420919
1.1747823891
1.1811424166
1.1743932430
1.1742138471
1.1775015721
1.1736729348
1.1750935750
1.1731427458
1.1783829704
1.1772419144
1.1772315332
1.1767002362
1.1733276000
1.1768689110
1.1752542375
1.1759446468
1.1762402047
1.1770220499
1.1766593164
1.1829165042
1.1767650965
1.1746716328
1.1782262666
1.1738481615
1.1786754171
1.1772521314
1.1766179853
1.1824724528
1.1826372792
1.1763192285
1.1765296200
1.1826051832
1.1744919760
1.1778335851
1.1807335359
1.1758148905
1.1796254135
1.1812598664
1.1804072156
1.1759261629
1.1805694144
1.1826403423
1.1811273825
1.1788647034
1.1740361257
1.1781238675
1.1794730389
1.1816702068
1.1766330579
1.1756590115
1.1802863648
1.1823927288
1.1778354658
1.1800748418
1.1748721004
1.1808147211
1.1805431666
1.1792500576
1.1781331267
1.1806589710
1.1775236839
1.1762607035
1.1778976845
1.1778250471
1.1784843895
1.1770485455
1.1737534649
1.1840172323
1.1768550370
1.1779131349
1.1762679296
1.1836938333
1.1753928164
1.1799757845
1.1773757888
1.1773227427
1.1836916976
1.1808472194
1.1795193120
1.1772739207
1.1746009123
1.1833765451
1.1785054700
1.1794731176
1.1751342058
1.1813266975
1.1743946036
1.1759270173
1.1767606635
1.1749576408
1.1827102606
1.1791739471
1.1743208656
1.1735852663
1.1759465281
1.1794180866
1.1842558566
1.1738498037
1.1779886914
1.1773228580
1.1788304894
1.1776952247
1.1772528210
1.1755750690
1.1763200097
1.1746728813
1.1833566864
1.1845720442
1.1825368838
1.1806977024
1.1733293606
1.1773600642
1.1774428335
1.1768639705
1.1838923540
1.1829777777
1.1782263641
1.1772933233
1.1839102698
1.1799527743
1.1758654481
1.1743097133
1.1751335357
1.1805635572
1.1764850216
1.1772952355
1.1752552915
1.1828029577
1.1756082852
1.1739951787
1.1748834280
1.1819454374
1.1838460929
1.1847826567
1.1822014809
1.1802276006
1.1761544375
1.1746090054
1.1753697590
1.1846305934
1.1848524573
1.1775017937
1.1774846467
1.1773713166
1.1783643991
1.1834340072
1.1786014222
1.1781454802
1.1855063084
1.1850435941
1.1768849573
1.1770117124
1.1838063022
1.1772434859
1.1775872568
1.1792542724
1.1845061202
1.1852603888
1.1849170879
1.1773408883
1.1774898677
1.1796683913
1.1789327986
1.1784368905
1.1843065804
1.1848093096
1.1830835838
1.1837267367
1.1807682245
1.1852234619
1.1856137530
1.1795703364
1.1845718527
1.1839788175
1.1795197166
1.1857970096
1.1767656099
1.1850473063
1.1770708816
1.1770428297
1.1857537042
1.1785058684
1.1854462231
1.1852217109
1.1765304409
1.1848779753
1.1772164441
1.1781617227
1.1845187981
1.1846276660
1.1755410752
1.1732646573
1.1732229545
1.1732242216
1.1732657115
1.1730587772
1.1731739342
1.1729203113
1.1729817742
1.1734042334
1.1732475906
1.1734229456
1.1734055828
1.1730818371
1.1729730492
1.1731887538
1.1728153589
1.1729833870
1.1730605331
1.1729218014
1.1728505923
1.1730256551
1.1733365897
1.1731561109
1.1727939972
1.1729691287
1.1731815396
1.1729523586
1.1729017570
1.1729881473
1.1727711176
1.1730619723
1.1730421791
1.1733823974
1.1731715994
1.1733026601
1.1728172424
1.1728434703
1.1729231206
1.1732576702
1.1732697718
1.1734093435
1.1734560061
1.1735718120
1.1745976677
1.1731076373
1.1730164645
1.1735329162
1.1746463142
1.1731836646
1.1729704776
1.1735541756
1.1728426391
1.1729358701
1.1733843248
1.1734630697
1.1743313500
1.1732195757
1.1736737223
1.1730628180
1.1734229528
1.1733029060
1.1733503817
1.1747612860
1.1741775878
1.1731726694
1.1737274044
1.1734980489
1.1736443096
1.1745653776
1.1735661321
1.1735933338
1.1741868072
1.1743842468
1.1735850784
1.1739208629
1.1728432499
1.1745953275
1.1743243294
1.1739789882
1.1734563992
1.1737694347
1.1743331386
1.1773065031
1.1766046281
1.1733502692
1.1736756208
1.1739094251
1.1747614243
1.1737579096
1.1740610449
1.1736955037
1.1743427918
1.1740407097
1.1768413563
1.1767130576
1.1746677235
1.1736960538
1.1739162151
1.1743261424
1.1745603598
1.1747310203
1.1738316191
1.1755806509
1.1750536693
1.1740472420
1.1739562523
1.1747155207
1.1743892532
1.1741137898
1.1739227307
1.1750233115
1.1739807710
1.1744064458
1.1746597566
1.1749040278
1.1754896400
1.1752280555
1.1743820470
1.1739123334
1.1749384583
1.1737963178
1.1728448503
1.1746489482
1.1739112479
1.1743447032
1.1751543290
1.1746689825
1.1764743938
1.1744959624
1.1771863005
1.1771904587
1.1739771622
1.1766076193
1.1742850971
1.1752883950
1.1765843611
1.1748945440
1.1773101227
1.1770798069
1.1750959797
1.1748353432
1.1739108809
1.1753115571
1.1754920731
1.1749312411
1.1747480683
1.1750560414
1.1751386276
1.1742017946
1.1745620854
1.1737981511
1.1745661215
1.1741368273
1.1750096165
1.1747167472
1.1750238998
1.1737969112
1.1751941491
1.1751564329
1.1743874310
1.1753386783
1.1747328572
1.1749830875
1.1753097369
1.1745752826
1.1741121241
1.1754410164
1.1764773499
1.1742966673
1.1749713679
1.1748966542
1.1746517963
1.1744980034
1.1753961389
1.1770658926
1.1756341663
1.1763547252
1.1750726027
1.1778220873
1.1769647227
1.1741719137
1.1748184349
1.1752165607
1.1754695479
1.1748108179
1.1771894131
1.1758065789
1.1769135606
1.1751530915
1.1778242517
1.1751959006
1.1753670311
1.1777690819
1.1753122426
1.1751583326
1.1758552688
1.1745682048
1.1753694215
1.1777938307
1.1747501676
1.1752884744
1.1742004004
1.1760394804
1.1751370572
1.1776783564
1.1756223702
1.1750109535
1.1756351256
1.1778255788
1.1754289101
1.1752169507
1.1755409911
1.1762487515
1.1757317678
1.1741735316
1.1727301539
1.1748130398
1.1763568033
1.1748633063
1.1750541017
1.1756797759
1.1780034619
1.1754989636
1.1757574673
1.1744008438
1.1770679689
1.1726859855
1.1765073364
1.1746500451
1.1760401053
1.1760699797
1.1775591793
1.1727548410
1.1772699715
1.1758953001
1.1763277986
1.1756210889
1.1757114763
1.1779082435
1.1770238683
1.1779797384
1.1760954083
1.1769460208
1.1744913357
1.1761814825
1.1758911157
1.1777978574
1.1769351856
1.1758681951
1.1773309729
1.1776524431
1.1754310084
1.1727320280
1.1757342439
1.1767248593
1.1726939589
1.1765248953
1.1760290797
1.1726604811
1.1763616611
1.1758695379
1.1774267554
1.1726898932
1.1762783104
1.1727566307
1.1770245699
1.1764304897
1.1774102035
1.1728379365
1.1744926193
1.1763291008
1.1760012490
1.1726242090
1.1775625961
1.1765278731
1.1726840153
1.1767034772
1.1758969776
1.1761524773
1.1769480364
1.1761367540
1.1726044096
1.1756744275
1.1774859781
1.1765440249
1.1773321629
1.1767275337
1.1726655199
1.1764937573
1.1774774207
1.1758361644
1.1761357067
1.1776552976
1.1764676996
1.1726765833
1.1760390252
1.1767954506
1.1727144741
1.1727792977
1.1767230114
1.1755801452
1.1728396382
1.1726863973
1.1731529184
1.1725395426
1.1762809303
1.1769953210
1.1726067112
1.1725784618
1.1774077269
1.1770993659
1.1774287929
1.1726635506
1.1763542646
1.1734170194
1.1725794629
1.1759287576
1.1763991047
1.1727501475
1.1729532700
1.1761780596
1.1771047698
1.1725607107
1.1770357183
1.1758362344
1.1728003913
1.1763477875
1.1768095462
1.1771110652
1.1774795273
1.1767963775
1.1766170568
1.1767471238
1.1727918708
1.1726543469
1.1757444393
1.1727166572
1.1774876136
1.1726680821
1.1765425484
1.1756733981
1.1760389989
1.1770285890
1.1760703166
1.1764929409
1.1765958127
1.1725876104
1.1772236446
1.1724674380
1.1767814589
1.1725817345
1.1725808839
1.1775116373
1.1769151974
1.1768440521
1.1735177379
1.1773001760
1.1730041617
1.1725108051
1.1774062461
1.1727523584
1.1770998591
1.1724619132
1.1724705979
1.1771105820
1.1761777211
1.1737269217
1.1759119997
1.1732381283
1.1769937074
1.1725105589
1.1727316879
1.1769767171
1.1766152830
1.1726567596
1.1768194321
1.1768081266
1.1726955645
1.1727940650
1.1771114437
1.1724906095
1.1767956255
1.1768931399
1.1726104259
1.1760697925
1.1742498634
1.1765140863
1.1763699862
1.1738551853
1.1725130137
1.1775123658
1.1777716287
1.1724644119
1.1768421490
1.1759116465
1.1774692051
1.1726004654
1.1769135835
1.1767809938
1.1725067520
1.1765509530
1.1762258770
1.1725516326
1.1773290277
1.1746976048
1.1776649103
1.1725130868
1.1765644594
1.1767026785
1.1726142573
1.1728430137
1.1740910104
1.1769941257
1.1768186876
1.1727171957
1.1729001022
1.1726978637
1.1751907369
1.1768972654
1.1764987237
1.1725232520
1.1726028657
1.1725092195
1.1726603375
1.1776632940
1.1774685548
1.1724449887
1.1779668026
1.1745076229
1.1762251007
1.1763380646
1.1765129747
1.1725465231
1.1726645944
1.1778718085
1.1724840904
1.1757293211
1.1749726677
1.1774755689
1.1767004756
1.1728854740
1.1768949063
1.1772105643
1.1772004363
1.1762753294
1.1728435036
1.1767609345
1.1763262966
1.1724375061
1.1734038143
1.1726163533
1.1729501872
1.1754859774
1.1726669784
1.1761041999
1.1724715124
1.1740275026
1.1726350279
1.1725258173
1.1753188187
1.1725488427
1.1724281572
1.1779675118
1.1725379511
1.1723153122
1.1731549751
1.1727610393
1.1758501440
1.1736939372
1.1725879183
1.1748392448
1.1725489456
1.1723521328
1.1724474928
1.1776992503
1.1764362975
1.1760537238
1.1772084308
1.1784205089
1.1744090080
1.1771978970
1.1781028711
1.1769841574
1.1782342128
1.1785358386
1.1783016477
1.1775513366
1.1767218193
1.1785055818
1.1774328783
1.1782858081
1.1772608889
1.1779874874
1.1785042552
1.1784057288
1.1778529315
1.1750324276
1.1736956743
1.1728020327
1.1724125473
1.1743545030
1.1756755928
1.1726376030
1.1761044283
1.1726189358
1.1724020594
1.1764801630
1.1731785903
1.1725672048
1.1724740014
1.1737974949
1.1727995319
1.1732180577
1.1723933109
1.1745706008
1.1734205888
1.1727592480
1.1724305931
1.1740055226
1.1751864393
1.1724983825
1.1755425514
1.1762170361
1.1729620060
1.1723333077
1.1734863546
1.1727635493
1.1729890763
1.1723177888
1.1781832839
1.1747470619
1.1768121633
1.1773927197
1.1779961471
1.1785651849
1.1772181645
1.1785065516
1.1781814384
1.1788043195
1.1766805573
1.1777309000
1.1788660699
1.1789489996
1.1790980069
1.1741585471
1.1776969395
1.1783553622
1.1778025031
1.1780239897
1.1771072865
1.1776918831
1.1782944653
1.1787854137
1.1769412633
1.1783600750
1.1783027002
1.1785570049
1.1764371450
1.1779908675
1.1789766660
1.1790547577
1.1790734995
1.1782942071
1.1775174637
1.1740262809
1.1730358700
1.1724740367
1.1724046045
1.1727759110
1.1734838710
1.1753853152
1.1768459384
1.1734699848
1.1764812024
1.1730004947
1.1747026098
1.1760331589
1.1741115216
1.1728045002
1.1737353251
1.1729967797
1.1723357551
1.1724610912
1.1732242190
1.1749133130
1.1765768604
1.1732259540
1.1759069787
1.1729644053
1.1743468647
1.1755413714
1.1737780459
1.1726291974
1.1777834853
1.1782440269
1.1784345913
1.1782842577
1.1770781393
1.1796765332
1.1786878717
1.1750991462
1.1789061838
1.1790769061
1.1794541480
1.1794021274
1.1771729539
1.1744891446
1.1790423753
1.1776557608
1.1794843697
1.1787444680
1.1781076464
1.1779555237
1.1787513021
1.1785482947
1.1768136603
1.1796644153
1.1784920398
1.1788268521
1.1789216640
1.1795738468
1.1791495207
1.1774742172
1.1792911652
1.1773613543
1.1796146847
1.1788686509
1.1814367382
1.1796083784
1.1771924056
1.1810438972
1.1737964310
1.1730381581
1.1813006124
1.1818756816
1.1750650508
1.1795453686
1.1763822458
1.1744540513
1.1811640078
1.1814151123
1.1816697768
1.1726426300
1.1757445178
1.1768473822
1.1738163212
1.1743903392
1.1732635086
1.1787794689
1.1786969108
1.1804047897
1.1730560357
1.1804101397
1.1816855618
1.1733347657
1.1812788195
1.1792331045
1.1769208640
1.1807080930
1.1735154570
1.1728327466
1.1810620167
1.1820484396
1.1747116749
1.1799836371
1.1758952110
1.1741078207
1.1815133875
1.1811548869
1.1814093736
1.1724634309
1.1752687926
1.1762699832
1.1735533422
1.1740938570
1.1732281356
1.1784442959
1.1790315702
1.1800288538
1.1726778321
1.1808088372
1.1818268227
1.1733011194
1.1762979690
1.1800221282
1.1775109269
1.1792003869
1.1777081520
1.1800578650
1.1795176148
1.1793365304
1.1748765115
1.1751825938
1.1756204650
1.1802621825
1.1761561558
1.1770308826
1.1781492747
1.1796679865
1.1774604733
1.1769124845
1.1794688536
1.1777400948
1.1788624149
1.1754575711
1.1800187553
1.1748397606
1.1780849911
1.1787052129
1.1765727898
1.1788554907
1.1764210915
1.1797671134
1.1778150431
1.1789766533
1.1779128843
1.1801888239
1.1797952974
1.1794575366
1.1745330619
1.1748388010
1.1759509264
1.1802678071
1.1761121085
1.1771483842
1.1785007073
1.1795006312
1.1771745223
1.1768545582
1.1793668466
1.1775007680
1.1791369254
1.1801770283
1.1777676757
1.1784019420
1.1766149141
1.1791993851
1.1788309540
1.1826361553
1.1804454856
1.1806691853
1.1792342073
1.1795458952
1.1801954378
1.1810345914
1.1741504999
1.1812020752
1.1819481656
1.1806772592
1.1812007400
1.1790511329
1.1748178687
1.1809677511
1.1788811056
1.1786973297
1.1796378292
1.1780896125
1.1800253656
1.1735864287
1.1812629432
1.1816705161
1.1799389012
1.1824719045
1.1809669499
1.1819416775
1.1803814081
1.1728875646
1.1781493275
1.1816862763
1.1760996774
1.1783921669
1.1786150223
1.1829158951
1.1826365758
1.1796384155
1.1811420814
1.1825616344
1.1811644702
1.1818764959
1.1829858034
1.1733367960
1.1771937632
1.1804106063
1.1803910220
1.1819394022
1.1791907567
1.1828591851
1.1806003847
1.1817772373
1.1805712537
1.1789010304
1.1791117952
1.1798115213
1.1815116783
1.1738571739
1.1813014761
1.1823198154
1.1808742417
1.1793825368
1.1744691232
1.1812698019
1.1792538354
1.1783167745
1.1783164297
1.1805335951
1.1735552379
1.1814745834
1.1818256969
1.1802213510
1.1821827576
1.1815803112
1.1801004689
1.1726799951
1.1785081152
1.1803721396
1.1814613470
1.1756279868
1.1780901221
1.1827095795
1.1824485918
1.1800190674
1.1807478208
1.1823755242
1.1808092657
1.1818278996
1.1831887289
1.1731052306
1.1766210231
1.1799840952
1.1807518427
1.1745386759
1.1794680741
1.1833762940
1.1836934094
1.1802707189
1.1752023311
1.1751804339
1.1797154160
1.1761129421
1.1805692805
1.1796114767
1.1784966048
1.1775266680
1.1840168113
1.1736964658
1.1751837739
1.1739630457
1.1799485720
1.1764104336
1.1751937111
1.1839099297
1.1800368522
1.1757491493
1.1819892387
1.1833501542
1.1762986687
1.1756403143
1.1772980171
1.1772984602
1.1759806702
1.1778201029
1.1791663196
1.1834907817
1.1764838270
1.1773404867
1.1732005000
1.1745660701
1.1781230189
1.1802775349
1.1754903591
1.1760181361
1.1769503425
1.1755402599
1.1821799716
1.1742432370
1.1797503912
1.1836914008
1.1834763275
1.1800892176
1.1751452664
1.1794634302
1.1759518365
1.1801819886
1.1781526400
1.1773408245
1.1838918853
1.1734426483
1.1748400735
1.1739402828
1.1800610232
1.1762599746
1.1748533859
1.1840211168
1.1799097102
1.1754914264
1.1825098950
1.1830367665
1.1762339080
1.1756214257
1.1771487809
1.1760534292
1.1755670720
1.1775121456
1.1788390334
1.1836001599
1.1765733544
1.1729689364
1.1745343857
1.1753949752
1.1775117406
1.1808562216
1.1748654513
1.1757481585
1.1764404460
1.1817815995
1.1776504286
1.1736982087
1.1751947493
1.1790513105
1.1732024677
1.1819484834
1.1787879857
1.1775127087
1.1772072923
1.1793455647
1.1771217292
1.1738205469
1.1770651304
1.1824307216
1.1758001831
1.1802844274
1.1759116273
1.1764413353
1.1770783036
1.1802847886
1.1800293045
1.1800256174
1.1765823317
1.1812615453
1.1810628262
1.1789054756
1.1784448977
1.1824314931
1.1767453172
1.1751903969
1.1826365743
1.1811560260
1.1784713422
1.1763181173
1.1788302431
1.1741186663
1.1810348736
1.1807966138
1.1784929939
1.1782575498
1.1820537505
1.1777967599
1.1772532323
1.1810254947
1.1831148897
1.1790319673
1.1819175875
1.1831547464
1.1770213087
1.1764037727
1.1819180565
1.1823638672
1.1745399717
1.1776012543
1.1811855499
1.1746532198
1.1739646145
1.1819614654
1.1774592628
1.1734445442
1.1748545548
1.1786140474
1.1729708923
1.1815119521
1.1784932268
1.1809323534
1.1769512639
1.1772441273
1.1797087558
1.1770005314
1.1735328856
1.1770113290
1.1754803305
1.1764051517
1.1759815492
1.1770959645
1.1794735974
1.1806791842
1.1795263509
1.1770422488
1.1817238209
1.1826693473
1.1825622876
1.1769834380
1.1749187532
1.1823283443
1.1780910432
1.1769142496
1.1741061461
1.1805338304
1.1831541605
1.1786139076
1.1785011700
1.1775298130
1.1770701616
1.1828596981
1.1830074267
1.1765650631
1.1770110586
1.1822476852
1.1829863126
1.1742446579
1.1777422022
1.1815686984
1.1743839890
1.1739419064
1.1806025016
1.1755680025