<VTKFile type="UnstructuredGrid" version="0.1">
	<UnstructuredGrid>
		<Piece NumberOfPoints="1862" NumberOfCells="3498">
			<CellData>
				<DataArray type="Int32" Name="type" NumberOfComponents="1" Format="ascii">
0
0
0
0
0
0
0
0
0
0
0
0
0
0
0
0
1
0
0
1
0
0
0
0
0
0
0
0
0
0
0
0
0
1
0
0
0
0
0
0
0
0
0
0
0
0
0
0
0
0
1
0
0
0
0
0
0
0
0
0
0
1
0
0
0
0
0
0
0
0
0
0
0
0
0
0
0
0
0
0
0
0
0
0
0
0
0
0
0
0
0
0
0
0
0
0
0
0
0
0
0
0
0
0
0
0
0
0
0
0
0
0
0
0
0
0
0
0
0
0
0
0
0
1
0
0
0
0
0
0
0
0
0
0
0
0
0
0
0
0
0
0
0
0
0
0
0
0
0
0
0
1
0
1
1
0
0
0
0
0
0
0
0
0
0
0
0
0
1
0
1
0
0
0
0
1
0
0
0
0
0
0
0
0
1
1
0
0
0
0
0
1
0
0
0
0
0
0
0
0
1
0
0
0
0
0
0
0
0
0
0
0
0
0
0
0
0
0
0
0
0
0
0
0
0
0
0
0
0
0
0
0
0
1
0
0
0
0
0
0
0
0
0
0
0
0
0
0
0
0
0
0
0
0
0
0
0
0
0
0
0
0
0
0
0
0
0
0
0
0
0
0
0
0
0
0
0
0
0
0
0
1
0
0
0
0
0
0
0
0
0
0
0
0
0
0
0
0
0
0
0
0
0
0
0
0
0
0
0
0
0
0
0
0
0
0
0
0
0
0
0
0
0
0
0
0
0
0
0
0
0
0
1
0
0
0
0
0
0
0
0
0
0
0
0
0
0
0
0
0
0
0
0
0
0
0
0
0
0
0
0
0
0
0
0
0
0
0
0
0
0
0
0
0
0
0
0
0
0
0
0
0
0
0
0
0
0
0
0
0
1
0
0
0
0
0
0
0
0
0
0
0
0
0
0
0
0
0
0
0
0
0
0
0
0
0
0
0
0
0
0
0
0
0
0
0
0
0
0
0
0
0
0
0
0
0
0
0
0
0
0
0
0
0
0
0
0
0
0
0
0
0
0
0
0
0
0
0
0
0
0
0
0
0
0
0
0
0
0
0
0
0
0
0
0
0
0
0
0
0
0
0
0
0
0
0
0
0
0
0
0
0
0
0
0
0
0
0
0
0
0
0
0
0
0
0
0
0
0
0
0
0
0
0
0
0
0
0
0
0
0
0
0
1
0
0
0
0
0
0
0
0
0
0
0
0
0
0
0
0
0
0
0
1
0
0
0
0
0
0
0
0
0
0
0
0
0
0
0
0
0
0
0
0
0
0
0
0
0
0
0
0
0
0
0
0
0
0
0
0
0
0
0
0
0
0
0
0
0
0
0
0
0
0
0
0
0
1
0
0
0
0
0
0
0
0
0
0
0
0
0
0
0
0
0
0
0
0
0
0
0
1
0
0
0
0
0
0
0
0
0
0
0
0
0
0
0
0
0
0
0
1
0
0
0
1
0
0
0
0
0
0
0
0
0
0
0
0
0
0
0
0
0
0
0
0
0
0
0
0
0
1
0
0
0
0
0
0
0
1
0
0
0
0
0
0
0
0
0
0
0
0
0
0
0
0
0
0
0
0
0
0
0
0
0
0
1
0
0
0
0
0
0
0
1
0
0
0
0
0
0
1
0
0
0
0
0
0
0
0
0
0
0
0
0
0
0
0
0
0
0
0
0
0
0
0
0
0
0
0
0
0
0
0
0
0
0
0
0
0
1
0
0
0
0
0
1
0
0
0
0
0
0
0
1
0
0
0
0
0
0
0
0
0
0
0
0
0
1
0
0
0
0
0
0
0
0
0
0
0
0
0
0
0
0
0
0
0
0
0
0
0
0
0
0
0
0
0
0
0
0
0
0
0
0
0
0
0
0
0
0
0
0
0
0
0
0
0
0
0
0
0
1
0
0
0
0
0
0
0
0
0
0
0
0
0
0
0
0
0
0
0
1
0
0
0
0
0
0
0
0
0
1
0
0
0
0
0
0
0
0
0
0
0
0
0
0
0
0
0
0
0
0
0
0
0
0
0
0
0
0
0
1
0
1
0
0
0
0
0
0
0
0
0
0
0
0
0
0
0
0
0
0
0
0
0
0
0
0
0
0
0
1
0
0
0
1
0
0
0
0
0
0
0
0
0
0
0
0
0
0
0
0
0
0
0
0
0
0
0
0
0
0
0
0
1
0
0
0
0
0
0
0
0
0
0
0
0
0
0
0
0
0
0
0
0
0
0
0
0
0
1
0
0
0
0
0
0
0
0
0
0
0
0
0
0
0
0
0
0
0
0
0
0
0
1
0
0
0
0
0
0
1
0
0
0
0
0
0
0
0
0
0
0
1
0
0
0
0
0
0
0
0
0
0
0
0
0
0
0
0
0
0
0
0
1
0
0
0
0
0
0
0
0
0
0
0
1
0
0
0
0
0
0
0
0
0
0
0
0
0
0
0
0
0
0
0
0
0
1
0
0
0
0
0
0
0
0
0
1
1
0
1
0
1
0
0
0
0
0
0
0
0
0
0
0
1
0
0
0
0
0
1
1
0
0
0
0
0
0
1
0
0
0
0
0
1
1
1
0
0
0
0
0
0
0
0
0
0
0
0
1
1
0
0
1
0
0
0
0
0
1
0
0
0
1
0
1
0
0
0
0
0
0
0
1
0
0
0
0
0
0
0
1
0
0
1
0
0
0
0
0
0
0
0
0
0
0
0
0
0
0
1
0
0
0
0
0
0
0
0
0
0
0
0
0
0
0
0
0
0
0
0
0
0
0
0
0
0
0
0
0
0
0
0
0
0
0
0
1
0
0
0
0
0
0
1
0
0
0
1
0
0
0
0
0
0
0
0
0
0
0
1
0
0
0
0
0
0
0
0
0
0
0
0
0
0
0
0
0
0
0
0
0
0
0
0
0
0
0
0
0
0
0
0
0
0
0
0
0
0
0
0
1
1
0
0
0
0
0
0
0
0
0
0
0
0
0
1
0
0
0
0
0
0
0
0
0
0
0
0
0
0
0
0
0
0
0
0
0
0
0
0
0
0
0
0
0
0
0
0
0
0
0
0
0
0
0
0
0
0
0
0
0
0
0
0
0
0
0
0
0
0
0
0
0
0
0
0
0
0
0
0
0
0
0
0
0
0
0
0
1
1
0
0
0
0
0
0
0
0
1
0
0
0
0
0
0
0
0
0
0
0
0
0
0
0
0
0
0
0
0
0
0
0
1
0
0
0
0
0
0
0
0
0
0
0
0
0
0
0
0
1
0
0
0
0
0
0
0
0
0
0
0
0
0
0
0
0
0
0
0
0
0
0
0
0
0
0
0
0
0
0
0
0
0
0
0
0
0
0
0
0
0
0
0
0
0
0
0
0
0
0
0
0
0
0
0
0
0
0
0
0
0
0
0
0
0
0
0
0
0
0
0
0
0
0
0
0
0
0
0
0
0
0
0
0
0
0
0
0
0
0
1
1
0
0
0
0
0
1
0
0
0
0
0
0
0
0
0
0
0
0
1
0
0
0
0
0
0
0
0
0
0
0
0
0
0
0
0
0
0
0
0
0
0
0
0
0
0
0
0
0
0
0
0
0
0
0
0
0
0
0
0
0
0
0
0
0
0
0
0
0
0
0
0
0
1
0
1
0
0
0
0
0
0
0
0
0
0
0
0
0
0
0
0
0
0
1
0
0
0
0
0
0
0
0
0
0
0
0
0
0
0
0
0
0
0
0
0
0
0
0
0
0
0
0
0
0
0
0
0
0
0
0
0
0
0
0
0
0
0
0
0
0
0
0
0
0
0
0
0
0
0
0
0
0
0
0
0
0
0
0
0
0
0
0
0
0
1
0
0
0
0
0
0
0
0
0
0
1
0
0
0
0
0
0
0
0
0
0
0
0
0
0
0
0
0
0
0
0
0
0
0
0
0
0
0
0
0
0
0
0
0
0
0
0
0
1
0
0
0
0
0
0
0
0
0
0
0
0
0
0
0
0
0
0
0
0
0
0
0
0
0
0
0
0
0
0
0
0
0
0
0
0
0
0
0
0
0
0
0
0
0
0
0
0
0
0
0
0
0
0
0
0
0
0
0
0
0
0
0
0
0
0
0
0
0
0
0
0
0
0
0
0
0
0
0
0
0
1
0
0
0
0
0
0
0
0
0
0
0
0
0
0
0
0
0
0
0
0
0
0
0
0
0
0
0
0
0
0
0
0
0
0
0
0
0
0
0
0
0
0
0
0
0
0
0
0
0
0
0
0
0
0
0
0
0
0
0
0
0
0
0
0
0
0
0
0
0
0
0
0
0
0
0
0
0
0
0
0
0
0
0
0
0
0
0
0
0
0
0
0
0
0
0
0
0
0
0
0
0
0
0
0
0
0
0
0
0
0
0
0
0
0
0
0
0
0
0
0
0
0
0
1
0
0
0
0
0
0
0
0
0
0
0
0
0
0
0
0
0
0
0
0
0
0
0
0
0
0
0
0
0
0
0
0
0
0
0
0
0
0
0
0
0
0
0
0
0
0
0
0
0
0
0
0
0
0
0
0
0
0
0
0
0
0
0
0
0
0
0
0
0
0
0
0
0
0
0
0
0
0
0
0
0
1
0
0
0
0
0
0
0
1
0
0
0
0
0
0
0
0
0
0
0
0
0
0
0
0
0
0
0
0
0
0
0
0
0
0
0
0
0
0
0
0
0
0
0
0
0
1
0
0
0
0
0
0
0
0
0
0
0
0
0
0
0
0
0
0
0
0
0
1
0
0
0
0
0
0
0
0
0
0
0
0
1
1
0
0
0
0
0
0
0
0
0
0
0
0
0
0
0
1
1
0
1
0
0
0
0
0
0
0
0
0
1
0
0
0
0
0
0
1
0
0
0
0
0
0
0
0
0
0
1
0
0
0
0
1
0
1
0
0
0
0
0
0
0
1
0
0
0
1
0
0
0
1
0
1
1
0
0
1
1
0
0
0
1
0
0
0
1
0
0
0
0
0
0
0
0
0
1
0
0
0
0
0
0
1
0
0
0
0
0
0
0
0
0
0
0
0
0
0
0
0
0
0
0
0
0
0
0
0
0
0
0
1
0
0
1
0
0
0
0
0
0
0
0
0
0
0
0
0
0
0
0
0
0
1
0
0
1
0
0
0
0
0
0
0
0
0
0
0
1
0
0
1
0
0
0
0
0
0
0
0
0
0
0
1
1
0
0
0
0
0
0
0
0
0
0
0
0
1
0
0
0
0
0
0
0
0
0
0
0
0
0
0
0
0
0
1
0
0
0
0
0
0
0
0
0
0
0
0
0
0
0
0
0
1
0
0
0
0
0
0
0
0
0
0
0
0
0
0
0
0
0
0
0
0
0
0
0
0
0
0
0
0
0
0
0
0
0
0
0
0
0
0
0
0
1
0
0
0
0
0
0
0
0
0
0
0
0
0
0
0
0
0
0
0
0
0
0
0
0
0
0
0
0
0
0
0
0
0
0
0
0
0
0
0
0
0
0
0
0
0
1
0
0
0
0
0
0
0
0
0
0
0
0
0
0
0
0
0
0
0
0
0
0
0
0
0
0
0
0
0
0
0
0
0
0
0
0
0
0
0
0
0
0
0
0
0
0
0
1
0
0
0
0
0
0
0
0
0
0
1
0
0
0
0
0
0
0
0
0
0
0
0
0
0
0
1
0
0
1
0
0
0
0
0
0
0
0
0
0
0
0
0
0
0
0
0
0
0
0
0
0
0
1
0
0
0
0
0
0
0
0
0
0
0
0
0
0
0
0
0
0
0
0
0
0
0
0
0
0
0
0
0
0
0
0
0
0
0
1
0
0
0
0
0
0
0
0
0
0
0
0
0
0
0
0
0
0
0
0
0
0
0
0
0
0
0
0
0
0
0
0
0
0
0
0
0
0
0
0
0
0
0
0
0
0
0
0
0
0
0
0
0
0
0
0
0
0
0
0
0
0
0
0
0
0
0
0
0
0
0
0
0
0
0
0
1
0
0
0
0
0
0
0
0
0
0
0
0
0
0
0
0
0
0
0
0
0
0
0
0
0
0
0
0
0
0
0
0
0
0
0
0
0
0
0
1
0
0
0
0
0
0
0
0
0
0
0
0
1
1
0
0
0
0
0
0
0
0
0
0
0
0
0
0
0
0
0
0
0
0
0
0
0
0
0
0
0
0
0
0
0
0
0
0
0
0
0
0
0
0
0
0
0
0
0
0
0
0
0
0
0
0
0
0
0
0
0
0
0
0
0
0
0
0
0
0
0
0
0
0
0
0
0
0
0
0
0
0
0
0
0
0
0
0
0
0
0
0
0
0
0
0
0
0
0
0
0
0
0
0
0
1
0
1
0
0
0
0
0
0
0
1
1
1
1
0
0
0
0
0
0
0
0
0
0
0
0
0
0
0
0
0
0
0
0
0
0
0
0
0
0
0
0
1
1
0
0
0
0
0
0
0
0
0
0
0
0
0
0
0
0
0
0
1
0
0
0
0
0
0
0
1
1
0
1
1
0
0
1
0
0
0
0
0
0
0
1
0
1
0
0
0
0
0
0
0
0
0
0
0
0
0
0
0
0
0
0
0
0
0
0
0
0
0
0
0
1
1
0
0
0
1
1
0
0
0
0
1
0
0
1
0
1
0
0
0
0
0
1
0
0
0
1
0
0
0
0
0
0
0
0
0
0
0
0
0
0
0
0
0
0
0
0
0
0
0
0
0
0
0
1
0
0
0
0
0
0
1
0
0
0
0
0
0
0
0
0
0
0
0
0
0
0
0
0
0
0
0
0
0
0
0
0
0
0
0
0
1
0
1
0
0
0
0
0
0
0
1
0
0
0
0
0
0
0
0
0
0
0
1
0
0
0
0
0
0
0
0
0
1
0
0
0
0
0
0
0
1
0
0
0
0
0
0
0
1
0
0
0
0
0
0
0
0
0
0
0
0
0
0
0
0
0
0
0
1
0
1
0
0
0
0
0
1
0
0
0
0
0
0
0
0
0
0
0
0
0
0
0
0
0
0
0
0
0
0
0
0
0
1
0
1
0
0
0
0
0
0
0
0
0
1
0
0
0
0
0
1
0
0
0
0
0
0
0
0
0
0
0
0
0
0
0
1
0
0
0
0
0
0
0
0
1
0
0
0
0
0
0
0
0
0
0
0
0
0
0
0
0
0
0
0
0
0
0
0
0
0
0
0
0
0
0
1
0
0
0
0
0
0
0
0
0
0
0
0
0
0
0
0
1
0
0
0
0
0
0
0
0
1
0
0
0
0
0
0
0
0
0
1
0
0
0
0
0
1
0
0
0
0
0
0
0
0
0
0
0
0
0
0
0
0
0
0
0
1
0
0
0
0
0
0
1
0
0
0
0
0
0
0
0
1
0
0
0
0
0
0
0
0
0
0
0
0
0
0
1
0
0
1
0
0
0
1
0
0
0
0
0
0
0
0
0
0
0
0
0
0
0
0
1
0
0
0
0
0
0
0
0
0
0
1
0
1
0
0
0
0
0
0
1
0
0
0
0
0
0
0
0
0
0
0
0
0
0
0
0
0
0
0
0
0
0
0
0
0
0
0
1
1
0
0
0
0
0
0
1
0
0
0
0
0
0
0
0
0
0
0
0
0
1
0
0
0
0
0
0
0
1
0
0
0
0
0
0
0
0
0
0
0
0
0
0
0
0
0
0
0
0
0
0
0
0
0
0
0
1
0
0
0
0
0
0
0
0
0
0
1
0
0
1
0
0
0
0
0
0
0
0
0
0
0
0
0
0
0
0
0
0
0
0
0
0
0
0
0
0
0
0
0
1
0
0
0
0
0
0
0
1
0
0
0
0
0
0
0
1
0
0
0
0
1
0
0
0
0
0
0
0
0
0
0
0
1
0
1
0
0
0
1
0
				</DataArray>
				<DataArray type="Float64" Name="h" NumberOfComponents="1" Format="ascii">
1.1777014639
1.1776544672
1.1893718645
1.1815015164
1.1899419200
1.1882540522
1.1850698345
1.1749671091
1.1825603456
1.1653380655
1.1782157140
1.1872217906
1.1708785453
1.1743648953
1.1745909828
1.1585788001
1.1841603170
1.1653773480
1.1755079595
1.1772858739
1.1931860677
1.1692063491
1.1818550874
1.1934502343
1.1814235167
1.1540549255
1.1727066013
1.1989654083
1.1884942346
1.1702033861
1.1739871444
1.1840620591
1.1658453363
1.1907661434
1.2040694418
1.1944010295
1.1989038502
1.1812168783
1.1982377354
1.1947422833
1.1903035274
1.2017110516
1.1758559240
1.1887040055
1.1958385764
1.1958146945
1.1837386665
1.2070785133
1.2301267384
1.2284510052
1.1967029980
1.1951314699
1.1907455769
1.2147274182
1.2007457925
1.1742030851
1.1976128475
1.2120705528
1.2142144380
1.2130077054
1.2185856418
1.2166508724
1.2287147117
1.1967571568
1.1910849218
1.2062221434
1.2265065051
1.2267631728
1.2165962353
1.2145862902
1.2145418295
1.2023745337
1.1797181922
1.2176420471
1.2158324441
1.2007437317
1.2125039527
1.2191595608
1.2096643698
1.2003513927
1.2225848409
1.2099076860
1.2339018854
1.2245526976
1.1936752004
1.2069328089
1.2245015392
1.2220766200
1.2209787843
1.2332098789
1.2259003998
1.2026578717
1.2209357336
1.2323988056
1.2120181859
1.2081662545
1.2189410859
1.1962075448
1.2014578583
1.2246136527
1.2333460660
1.2229768879
1.2162738966
1.2099317879
1.1533842933
1.2244675155
1.2139290523
1.2314674039
1.2189601417
1.2128905752
1.2313663567
1.2324578639
1.2241491509
1.2272571901
1.2196765611
1.2320834831
1.2168769181
1.1605692684
1.2306760524
1.2225389450
1.1557654336
1.2195896907
1.2082347673
1.1483022452
1.2252825050
1.2315926995
1.2200434635
1.1449929054
1.2311666761
1.2328593471
1.2297137233
1.2149738000
1.2227981309
1.2332543607
1.1608387135
1.2294756366
1.1462749319
1.2337668714
1.2266820681
1.1568907234
1.1416790842
1.1545194025
1.2309796905
1.1634872238
1.2098262685
1.2277501210
1.1509772423
1.2362336168
1.1505730131
1.2376840225
1.1417635800
1.2346225944
1.2348789796
1.2383973854
1.2247929631
1.2344944556
1.2382106197
1.1465399294
1.2376994787
1.1262776124
1.1578869763
1.2359832724
1.1461821971
1.1357201744
1.1456707802
1.2344737878
1.1704352983
1.1517332977
1.1353084815
1.2351105020
1.2373218477
1.1258452992
1.2384266774
1.1432358738
1.1718748885
1.2414742847
1.1645776197
1.2356388015
1.2410362626
1.1337661303
1.2339295099
1.1795802459
1.1241339419
1.2114353658
1.1241513415
1.1135546972
1.1777177305
1.2395992733
1.1302961056
1.1093909301
1.1875800138
1.2407222291
1.1155224995
1.1853074826
1.2413641020
1.2352833918
1.1338014286
1.1959096383
1.1930840790
1.2380486453
1.1081963403
1.2156404366
1.1117100132
1.2392542771
1.2045360424
1.1207345063
1.1482033454
1.1384642334
1.2012303237
1.1603943612
1.1837491103
1.1165124938
1.1286425686
1.1190453785
1.1432987811
1.1925618500
1.1539109899
1.1267179043
1.1754140889
1.1183692575
1.2095310994
1.2332561163
1.1675899647
1.2313183516
1.2189411926
1.2361692937
1.2340970364
1.2269379161
1.2131178932
1.2337291953
1.2377027598
1.2324903849
1.2234259994
1.2371925656
1.2352576930
1.2295511290
1.1863061838
1.1444697662
1.1161886222
1.1566072651
1.1818969959
1.1358148301
1.1225677480
1.1613214975
1.1388140147
1.1484999821
1.1232412354
1.1773324691
1.1399147547
1.1270345309
1.1499702024
1.1726249556
1.1287478744
1.1957604698
1.1918357558
1.1214411291
1.1544590266
1.1433848421
1.1190481364
1.2325176670
1.1641915030
1.2212127159
1.2289429442
1.2327670364
1.2225157551
1.2346331401
1.2347178114
1.2109275660
1.2364318444
1.2340737518
1.2340418616
1.1689778978
1.2337257411
1.2290908720
1.2312017367
1.2149138082
1.2257288052
1.2312186014
1.2336620926
1.2175512758
1.2339433372
1.2355724560
1.2353989286
1.2341874222
1.2341421957
1.2333075306
1.2262462097
1.1399247704
1.1244062875
1.1237268367
1.1443341836
1.1847972958
1.1325926698
1.1356772986
1.1519861554
1.1796600620
1.1573936071
1.1358243342
1.1266610137
1.1214445944
1.1232145888
1.1396249920
1.1747484830
1.1908669506
1.1954616475
1.1451075159
1.1692910766
1.1501760472
1.1282479144
1.2237124692
1.2310471426
1.2315469125
1.2348645417
1.2123905496
1.2341445933
1.2337911125
1.1600283519
1.2342930860
1.2334593847
1.1655491257
1.2345564649
1.2249145235
1.2350477220
1.2337847049
1.2284664542
1.2285384382
1.2334537504
1.2341194540
1.2327546775
1.2342547126
1.2340778069
1.2333351609
1.2340667203
1.2167522315
1.2350474877
1.2197012401
1.2346925243
1.1389697204
1.2320730248
1.1463891078
1.1769509010
1.1526101152
1.1248412671
1.1829682273
1.1286392927
1.1344205126
1.1318796488
1.1240194900
1.2361214133
1.2357789138
1.1897603377
1.2440091538
1.1349317184
1.1270449633
1.2345820499
1.1394342589
1.2434937062
1.1654738234
1.1445261868
1.2442908421
1.2405037731
1.2325446080
1.1232178776
1.1716802928
1.1949988585
1.1309563850
1.2187761596
1.2322795183
1.2438055859
1.1241215875
1.2483706892
1.2411671489
1.1254357380
1.2325106875
1.2354067544
1.2369163154
1.2331817573
1.1126881903
1.2345417256
1.2262574874
1.2138551684
1.2350526148
1.2334748844
1.1550519507
1.2363788287
1.1614564249
1.2276757268
1.2335949262
1.2346436134
1.1151963572
1.2328089089
1.2184744068
1.2348478853
1.2027795970
1.2328064871
1.2368800566
1.1077744846
1.1001266601
1.1007543930
1.1683358836
1.2314873683
1.2344055263
1.1486762030
1.2354358409
1.1868710761
1.2330745430
1.2355496309
1.2220082690
1.2313583861
1.1304615218
1.2362864120
1.2282892773
1.2394231402
1.2377183806
1.1330925557
1.2341452128
1.2363302918
1.1469320507
1.2424871701
1.2333808097
1.2210187993
1.2078399703
1.1273556806
1.2383013775
1.2338967700
1.2409152513
1.2321960488
1.1243362391
1.2438478790
1.1809839276
1.2409812154
1.2345863901
1.2479043450
1.2384402728
1.2470342909
1.2446201755
1.2494315741
1.2379710217
1.2332095173
1.2244309742
1.2391182789
1.2543826452
1.1295504913
1.2525161511
1.2345446981
1.1384971495
1.2379071010
1.2463991984
1.2404999039
1.2479161443
1.2518342990
1.2317967153
1.1241240541
1.2262966355
1.1682395445
1.2078369038
1.2369503388
1.2417555686
1.2495916740
1.2401590674
1.1249608509
1.1945960775
1.1262227659
1.2324038051
1.1567786850
1.2376034382
1.2402341111
1.2306024541
1.1856956642
1.1218364194
1.2329404251
1.1408515831
1.2362028794
1.1650153432
1.2152589994
1.2367150716
1.2439820088
1.1258648587
1.1226784055
1.1095531395
1.1053490014
1.1959468199
1.1231303458
1.2323873415
1.2594182108
1.2511266319
1.2350878233
1.1020256957
1.2375759377
1.0939034835
1.2406509245
1.2242623340
1.2460145184
1.1218241912
1.1077686707
1.1055094005
1.1316395408
1.2532499006
1.2370876610
1.0979175658
1.2602809586
1.2569668120
1.1101026443
1.1007483024
1.1683324600
1.1518766168
1.2345727983
1.1238802683
1.2100840178
1.2471995523
1.1020332206
1.1808294154
1.2562179201
1.1408446238
1.2267496306
1.1226779956
1.2553731254
1.2316862008
1.1210648580
1.1333188266
1.1808284875
1.2452882834
1.2400151083
1.2319489696
1.1205291353
1.2524072004
1.0906365485
1.2513369574
1.2160359735
1.1736923678
1.2503717868
1.1262165033
1.2517236535
1.1170595463
1.1218325743
1.1818430728
1.1218224630
1.1316325731
1.1238815598
1.2160341492
1.1959472274
1.1641002447
1.0969147759
1.1227169915
1.1254068677
1.1253264469
1.0993768793
1.1650119028
1.1446534492
1.0912965230
1.2373449548
1.1088465217
1.1182080648
1.2094317697
1.1194241732
1.2197403671
1.1899426535
1.0901724940
1.2449105460
1.2387203822
1.1573313493
1.0912335527
1.2417469427
1.1231252573
1.1970425076
1.2379611270
1.1518709127
1.2402285876
1.2528319016
1.2317940979
1.1440126688
1.2469706435
1.2583880279
1.2523573191
1.2333825842
1.1175192442
1.2169399036
1.2353403017
1.2562134769
1.1568296330
1.1178186151
1.2404885710
1.2602764511
1.0802841650
1.2409326858
1.1100942737
1.2332055635
1.2394117959
1.2379060609
1.0875688398
1.2321929289
1.1891668409
1.1002308694
1.2000337450
1.1003768238
1.2262995541
1.1747545897
1.1202607700
1.2463986575
1.1454387365
1.2024660858
1.1403576243
1.2475099031
1.1124627441
1.2409057575
1.1169007838
1.1666943706
1.2567901603
1.2363218354
1.0599815564
1.1529712324
1.1120492697
1.2591680088
1.0790654697
1.2353392959
1.1098706884
1.2529828220
1.1170548884
1.1440069924
1.1736902451
1.1205227297
1.2353211835
1.2283037950
1.1146743253
1.1210636640
1.1271064877
1.0659032918
1.2661736173
1.1194212787
1.1154972231
1.1666942206
1.0763788551
1.1394667964
1.1899412665
1.1333118849
1.1573276899
1.1182025649
1.2652842191
1.2647483068
1.2615378266
1.2472340022
1.1227179309
1.1622746050
1.1783923756
1.1647292336
1.2432235612
1.2603567000
1.2094307901
1.1359544454
1.2536082495
1.0580420008
1.1187735363
1.1153017544
1.1078949165
1.0577116234
1.1468017323
1.1828259252
1.1253194836
1.2627954688
1.1114285040
1.1189743117
1.1097441021
1.2578450557
1.2663949483
1.2623075839
1.2590403827
1.0526226926
1.1304427300
1.1119900745
1.1078338651
1.2558761509
1.2555151808
1.1818411211
1.1552608765
1.1732091292
1.0923752495
1.2662952703
1.0863115005
1.1100268901
1.2686493999
1.2700272607
1.1341050662
1.1272450823
1.2683037409
1.1242243896
1.1305546721
1.0680539653
1.2710872406
1.2682995754
1.2721466687
1.1057387703
1.0923480800
1.0604579452
1.0770734369
1.0886742644
1.2699687557
1.2724933176
1.2638303529
1.2670470297
1.0524925125
1.2743775307
1.2760042555
1.0671362696
1.2647564895
1.2639783373
1.0599838698
1.2761484331
1.1088464765
1.2679138787
1.0872766001
1.0889016347
1.2749249474
1.0790690696
1.2728286740
1.2623661299
1.0912290692
1.2591255695
1.0855099657
1.0738818574
1.2593469682
1.2521693702
1.1034741837
1.1817890913
1.1839917047
1.1839552821
1.1817382517
1.1845271831
1.1872332724
1.1782342011
1.1786815231
1.1882471200
1.1882711719
1.1899224467
1.1882170609
1.1825333433
1.1746237636
1.1850896576
1.1703387267
1.1786579266
1.1845117826
1.1704422208
1.1653942905
1.1814899169
1.1893591508
1.1755670100
1.1702177875
1.1621207367
1.1875115455
1.1749399743
1.1540528961
1.1814322046
1.1653242358
1.1680465353
1.1708379148
1.1924784732
1.1605633430
1.1770774885
1.1703209857
1.1739976735
1.1704110237
1.1907705757
1.1658906182
1.1841294877
1.1672440377
1.1947528767
1.1944154193
1.1841549335
1.1585627366
1.1759326686
1.1982971609
1.1875020981
1.1621040990
1.1903411510
1.1743511566
1.1772834081
1.1924692011
1.1817755571
1.2080374364
1.1691562446
1.1980488325
1.1680041406
1.1931794110
1.1770060715
1.1743940637
1.2032476948
1.2070804584
1.1605400239
1.1958545226
1.1967055390
1.1838284876
1.1989078344
1.1934359121
1.1884409745
1.1976610348
1.1905774727
1.1726381866
1.2009564200
1.1610513644
1.1943521152
1.2030657779
1.2046874342
1.1671944080
1.1908103649
1.2080370904
1.2300502635
1.2268643297
1.1743208022
1.1980420596
1.1998829001
1.2032197646
1.1943773262
1.1911673893
1.1811269573
1.2056940341
1.2040660812
1.2287003105
1.2267427097
1.2043649498
1.1988996491
1.1967831260
1.2030563254
1.2103930256
1.2119875708
1.1886246102
1.2176277249
1.2122464145
1.2023830670
1.1797938896
1.2143184829
1.1868515941
1.1887937641
1.2009505892
1.2189295382
1.2046852138
1.2016927230
1.2125020456
1.2145380301
1.2180598901
1.2158233624
1.1905034849
1.1830051313
1.2165944283
1.2021545484
1.1610396675
1.2145862307
1.1998737647
1.2056919463
1.2052547840
1.2043444277
1.2246678586
1.2078825775
1.2283667984
1.2301430433
1.1950928068
1.2268829802
1.1957545322
1.2099201407
1.2245314004
1.2080440636
1.2300698648
1.2284743433
1.2185872018
1.2166508605
1.1829179307
1.2207927048
1.2180750394
1.2142192149
1.2108102417
1.2122505429
1.1959991307
1.1815422578
1.2103941775
1.2021524334
1.2066235280
1.2007329667
1.2165524141
1.2143187442
1.2189308634
1.1741355985
1.2107814112
1.2162925334
1.1867893900
1.2147313852
1.2119910553
1.2130130570
1.2026921198
1.2120711081
1.1887118047
1.2209313576
1.2246859975
1.2099324568
1.2015050296
1.2080388244
1.1888393228
1.2078821927
1.2229753083
1.2266163301
1.2227392662
1.2222448036
1.2061953016
1.2333451927
1.2265317204
1.2071255772
1.1962632006
1.2208732879
1.2081917017
1.2090038348
1.2283935117
1.2246108542
1.2244456819
1.2052230084
1.2342368198
1.2107726444
1.2189528019
1.2324475772
1.2207952007
1.2163006731
1.2241406451
1.2066216519
1.2007129949
1.2312975849
1.2108135423
1.2191649593
1.1814756189
1.2261692906
1.1959651490
1.2313459593
1.2129032981
1.2165554312
1.2227437146
1.2342326593
1.2140818284
1.2208740697
1.2069089259
1.2195841150
1.2206918809
1.2071239822
1.1551353342
1.2090026491
1.2222584573
1.1936296451
1.2003064431
1.2245034513
1.2338984522
1.2225865563
1.2168759437
1.2096640824
1.2266447899
1.1557633743
1.2220920126
1.1887887283
1.2261728546
1.2149831303
1.2299174455
1.1505178068
1.2315851650
1.2233455924
1.2275000510
1.2209898049
1.2120055252
1.2324125388
1.2321486314
1.2332134018
1.2259059759
1.2304745785
1.2120515878
1.2252665349
1.2200302880
1.2313214008
1.2328591533
1.2162751909
1.2329730365
1.2298298603
1.2140826147
1.1551392664
1.2207064457
1.2288059851
1.1608444088
1.2294718106
1.2227813900
1.1533889091
1.2189466898
1.2098426070
1.2281534257
1.1545227755
1.2250364823
1.1505324633
1.2321487777
1.2272682910
1.2314774013
1.1506116222
1.2120505020
1.2275080051
1.2196878984
1.1505707044
1.2299445250
1.2309789776
1.1427009401
1.2320816477
1.2233559698
1.2277483927
1.2304811566
1.2139203300
1.1556760812
1.2036181505
1.2278458355
1.2359029457
1.2329732782
1.2288186491
1.1409443203
1.2325337003
1.2326927947
1.2262003929
1.2225563098
1.2298589686
1.2346201495
1.1605636190
1.2279850603
1.2306806239
1.1656637264
1.1417362812
1.2348789299
1.2247918839
1.1506269086
1.1427010946
1.1517348365
1.1456594971
1.2250544634
1.2369428211
1.1556739201
1.1406054553
1.2367059221
1.2257462207
1.2281810527
1.1482991840
1.2311670613
1.1579107091
1.1508022725
1.2082147871
1.2297158584
1.1650463017
1.1461646782
1.2295355916
1.2359850946
1.1449957298
1.2376991076
1.2262014874
1.1462993474
1.2332557987
1.2356525800
1.2244285545
1.2326942140
1.2335059073
1.2337660967
1.2384240771
1.1693029868
1.1447341034
1.2266834023
1.1656548607
1.2278698891
1.1409704241
1.2359045745
1.2035959687
1.2279863395
1.2351122634
1.2301391754
1.2325341559
1.2373189811
1.1432182311
1.2376846060
1.1241263175
1.2215385984
1.1508075024
1.1406121207
1.2338882913
1.2365710937
1.2388258605
1.1634434618
1.2362318667
1.1509798821
1.1337523872
1.2367050503
1.1650387308
1.2257609018
1.1276761336
1.1416899812
1.2339319032
1.2295364299
1.1646191725
1.2284216382
1.1568699756
1.2369423833
1.1321212614
1.1302941866
1.2344920954
1.2382125857
1.1447548811
1.2205393596
1.2356516597
1.1597068435
1.1692978366
1.2244439568
1.1241514421
1.2335043774
1.2384002199
1.1465525453
1.2301405815
1.1777690840
1.2169266572
1.2413600387
1.1703796799
1.1321292516
1.2338851850
1.2352879952
1.1276866398
1.2388277301
1.2284230044
1.2353024739
1.1221392536
1.2365710869
1.2215426112
1.1349857573
1.2407189063
1.2316962400
1.1357315772
1.2344706413
1.1853455451
1.2364740484
1.1262838032
1.2156544985
1.2403772612
1.1258462684
1.1117100866
1.1718275802
1.2392506497
1.2205393827
1.1353068757
1.1081969725
1.1597019539
1.1931104922
1.2396677281
1.2410397852
1.1370411619
1.1221429874
1.1349913748
1.1165111763
1.2364729024
1.2352991083
1.1257347056
1.2346803598
1.1795399910
1.2316981951
1.2414779383
1.2169186213
1.1129645393
1.1106010261
1.2356355637
1.1286282869
1.2012500736
1.1875520838
1.2376995331
1.2403817155
1.1093902918
1.2396724628
1.2382222472
1.2388229703
1.2114194831
1.1135538050
1.2396023526
1.2095465985
1.1232338356
1.1485037320
1.1357749902
1.1387947886
1.1958915438
1.1106007146
1.2017433385
1.1191595478
1.1613483880
1.1329672955
1.1370581709
1.1863216875
1.1155242570
1.1138586298
1.2346748869
1.1338210884
1.1169174065
1.1433742108
1.1340949151
1.1957713434
1.1544771778
1.1287331655
1.1773542967
1.1129647687
1.1161871451
1.1257462819
1.2368002548
1.2054457409
1.2045243493
1.2382249575
1.2332935589
1.1690051827
1.2388282296
1.2311804277
1.2175687550
1.2353982799
1.2339454994
1.2345665869
1.2262446576
1.2109406029
1.2337208914
1.2380540653
1.2324963330
1.2225277233
1.2364254027
1.2341863319
1.2346374577
1.2290768759
1.1837272809
1.1443385519
1.1316087264
1.1183731256
1.1574099488
1.1848062688
1.1329877902
1.2017319668
1.1357971552
1.1214563217
1.2021607720
1.1356662512
1.1243997573
1.1191632657
1.1603635210
1.1384869855
1.1482030852
1.1207399442
1.1753851099
1.1396203949
1.1282369235
1.1138591429
1.1501884652
1.1747610368
1.1267311616
1.1925451711
1.1954661789
1.1320176901
1.1196251264
1.1538932119
1.1341151867
1.1433142918
1.1169190086
1.2325113236
1.1655647937
1.2063172423
1.2197146721
1.2285503352
1.2327469692
1.2234211355
1.2341808821
1.2352552612
1.2341200149
1.2131053981
1.2371983741
1.2339931045
1.2342463368
1.2340793370
1.1675558843
1.2368020290
1.2337312703
1.2295685709
1.2313428518
1.2123937324
1.2249313875
1.2310487577
1.2337799473
1.2189268094
1.2340922836
1.2345605181
1.2348589314
1.2054406540
1.2361727610
1.2337882055
1.2342903021
1.2338327847
1.2332679068
1.2269447392
1.1389743690
1.1296573776
1.1225732721
1.1214624992
1.1248370712
1.1444678084
1.1818837293
1.2025059313
1.1318755341
1.2021573757
1.1358300664
1.1526208621
1.1829718336
1.1565878705
1.1316243374
1.1349314772
1.1270392696
1.1196277098
1.1218107464
1.1399235627
1.1726080551
1.1949968858
1.1293321079
1.1918261599
1.1320308323
1.1445352199
1.1716878975
1.1499573657
1.1270457101
1.2220097961
1.2312237936
1.2313723513
1.2355782016
1.2149064115
1.2344088955
1.2336771490
1.1614664245
1.2341440839
1.2338292343
1.2336177059
1.2330755763
1.2071262140
1.1641715729
1.2348544040
1.2257145839
1.2354367902
1.2341839493
1.2276857260
1.2289372312
1.2336070102
1.2347195428
1.2063201898
1.2337022669
1.2327808012
1.2340830542
1.2340383140
1.2331837986
1.2334714971
1.2138479488
1.2354086217
1.2211979990
1.2350550572
1.2339875363
1.2341506997
1.2409828702
1.2028838228
1.2424968979
1.1399219473
1.1296660442
1.2326461087
1.2368033236
1.1469402563
1.2393060857
1.1809841178
1.1519735023
1.2462126621
1.2383096902
1.2328790514
1.1237310257
1.1796528425
1.2025120829
1.1273563135
1.1330979939
1.1326004129
1.2282904372
1.2239944753
1.2446264080
1.1243345911
1.2467136112
1.2418846865
1.1269233326
1.2349664286
1.2371919290
1.1945922728
1.2425021485
1.1358278571
1.1266678878
1.2317947137
1.2359414743
1.1385046505
1.2441805973
1.1682440278
1.1450985176
1.2462339805
1.2389861728
1.2319552377
1.1218138267
1.1692804421
1.1908650063
1.1258553766
1.1295533303
1.1293380665
1.2224475105
1.2301067745
1.2432305825
1.1232404267
1.2472073794
1.2393092791
1.1249595741
1.1237737119
1.2323889370
1.2079185024
1.2350515081
1.1920718827
1.2335513644
1.2375881915
1.2333317975
1.1095591663
1.1065095515
1.1019218917
1.2350941840
1.0939084526
1.1550626398
1.2242567519
1.2336994679
1.2167537523
1.1599326983
1.2346915084
1.1970654909
1.2340713639
1.1567858878
1.2370964486
1.1600156077
1.2284526418
1.2334462764
1.1173105129
1.2345793441
1.1101057579
1.2324033879
1.2152506375
1.2345565710
1.2024684659
1.2329425439
1.2376141471
1.2336136018
1.1141993701
1.1107803551
1.0952645147
1.2339255795
1.0957439511
1.1661413335
1.2306024281
1.2341411525
1.2071350371
1.1454415720
1.2350503696
1.1856984162
1.2334589230
1.2362106167
1.2237048104
1.2315333646
1.1258676373
1.2367262583
1.2305461931
1.2499369127
1.2382821588
1.2339435142
1.2316887506
1.2393038474
1.2452917171
1.2518485420
1.1344167761
1.2332636292
1.2540312637
1.2354101737
1.2332684360
1.2266521300
1.1463796287
1.2409030223
1.2345118516
1.2239917117
1.2413288921
1.2116414379
1.2416568894
1.1286413847
1.2369342726
1.2328726705
1.2399096768
1.2449185214
1.2409129968
1.2503782736
1.2320013003
1.1240217345
1.2200240922
1.2418754823
1.1769487236
1.2187741520
1.2210218102
1.2373545194
1.2387289331
1.2413255470
1.2517283316
1.2361327880
1.2462046553
1.2367954808
1.2433965826
1.1269261365
1.2028935755
1.2467092072
1.2434222068
1.2339035892
1.2357786833
1.2467652138
1.2369164002
1.2438560828
1.2327335767
1.2253722185
1.2322771053
1.2407879581
1.2539491083
1.1309560921
1.2326409502
1.2545616801
1.2346701406
1.2341227155
1.1394269668
1.2404937337
1.2380197128
1.2137205716
1.2137235514
1.2476469493
1.1258560450
1.2361139229
1.2345756056
1.2393494511
1.2455904767
1.2501839219
1.2319410103
1.1232433866
1.2285784071
1.2470380353
1.2442824675
1.1654669136
1.2116389944
1.2353306446
1.2395884305
1.2438023864
1.2496708046
1.2342110941
1.2472010759
1.2393016041
1.2426030896
1.1254382347
1.1897641646
1.2441772720
1.2440003588
1.1279814915
1.2328112197
1.2591752739
1.2475198943
1.2339214915
1.1550427535
1.1053415597
1.2368736991
1.0957389109
1.2469731755
1.2396291161
1.2314810162
1.1868679556
1.2464100233
1.1232625355
1.1065031182
1.1238129033
1.2328034759
1.1037148258
1.1399613446
1.2536177283
1.2355443654
1.0977697938
1.2578218029
1.2544069546
1.1237694932
1.1001195259
1.1792899255
1.1792864589
1.1611682914
1.2184804847
1.2362739815
1.2412961028
1.1304579022
1.1746445111
1.1232125935
1.1126831462
1.2169393015
1.2422694879
1.1017677205
1.0950126677
1.1894375809
1.1019363438
1.2582369323
1.1251698546
1.2325083526
1.2567984919
1.2481553529
1.2345367898
1.1050514370
1.2369065658
1.0952582708
1.2420703104
1.2262579523
1.1746418569
1.2432352358
1.1231667338
1.1107752094
1.1214536384
1.2335476867
1.1002347725
1.1327489642
1.2500241870
1.2363737757
1.1017604549
1.2599903991
1.2546018802
1.1151921989
1.1019148856
1.1661383631
1.1119059405
1.1497025749
1.2079255024
1.2346322081
1.2408813667
1.1173082892
1.1236379161
1.1141951437
1.1025682800
1.2038190979
1.2485650278
1.1086447766
1.0977767040
1.1742196433
1.2562867708
1.1927906866
1.1232614379
1.1399533991
1.2266502358
1.1232130004
1.2540252397
1.2244287490
1.2038224974
1.1568035069
1.2335785170
1.0933446319
1.1196840399
1.1203059139
1.2368341517
1.1348238334
1.2463040490
1.0990326028
1.1742192287
1.1547517627
1.2463006761
1.2432248128
1.2416539020
1.0928748579
1.2369418273
1.2317894426
1.2267510178
1.2224468669
1.2368259332
1.1151366153
1.1185838054
1.2499292473
1.2389775880
1.2189766694
1.0938235189
1.2305462342
1.1179918589
1.2518441200
1.2483662407
1.2158952649
1.2108659532
1.2384479112
1.2052848126
1.0870140660
1.2320676233
1.2460298877
1.2301039412
1.2482584038
1.2394632698
1.1808518142
1.0912853775
1.2482511473
1.2425863502
1.1279763272
1.1876172989
1.2508370785
1.1151536418
1.1238111447
1.2411582635
1.1835800280
1.1231660930
1.1327419175
1.2181156330
1.1236401623
1.2539439238
1.2158930239
1.2513411593
1.1894395689
1.1662653347
1.2391153187
1.0959141129
1.1222050565
1.1272442816
1.1251927991
1.0943659198
1.1611638143
1.1469189909
1.2377213852
1.2495877011
1.2345423308
1.0889013832
1.2325378131
1.2524142353
1.2361239292
1.1091590787
1.1158282379
1.2525093942
1.2103697065
1.0889554946
1.1175120164
1.2476432938
1.2394732075
1.2181170202
1.2199213477
1.1970639291
1.0872776396
1.2467570454
1.2401498608
1.1641760563
1.0877388353
1.2479086480
1.2433875731
1.1251666785
1.1984309975
1.2518287526
1.1163235428
1.1214508756
1.2369080064
1.1496952650