<VTKFile type="UnstructuredGrid" version="0.1">
	<UnstructuredGrid>
		<Piece NumberOfPoints="1862" NumberOfCells="3498">
			<CellData>
				<DataArray type="Int32" Name="type" NumberOfComponents="1" Format="ascii">
0
0
0
0
0
0
0
0
0
0
0
0
0
0
0
0
1
0
0
1
0
0
0
0
0
0
0
0
0
0
0
0
0
1
0
0
0
0
0
0
0
0
0
0
0
0
0
0
0
0
1
0
0
0
0
0
0
0
0
0
0
1
0
0
0
0
0
0
0
0
0
0
0
0
0
0
0
0
0
0
0
0
0
0
0
0
0
0
0
0
0
0
0
0
0
0
0
0
0
0
0
0
0
0
0
0
0
0
0
0
0
0
0
0
0
0
0
0
0
0
0
0
0
1
0
0
0
0
0
0
0
0
0
0
0
0
0
0
0
0
0
0
0
0
0
0
0
0
0
0
0
1
0
1
1
0
0
0
0
0
0
0
0
0
0
0
0
0
1
0
1
0
0
0
0
1
0
0
0
0
0
0
0
0
1
1
0
0
0
0
0
1
0
0
0
0
0
0
0
0
1
0
0
0
0
0
0
0
0
0
0
0
0
0
0
0
0
0
0
0
0
0
0
0
0
0
0
0
0
0
0
0
0
1
0
0
0
0
0
0
0
0
0
0
0
0
0
0
0
0
0
0
0
0
0
0
0
0
0
0
0
0
0
0
0
0
0
0
0
0
0
0
0
0
0
0
0
0
0
0
0
1
0
0
0
0
0
0
0
0
0
0
0
0
0
0
0
0
0
0
0
0
0
0
0
0
0
0
0
0
0
0
0
0
0
0
0
0
0
0
0
0
0
0
0
0
0
0
0
0
0
0
1
0
0
0
0
0
0
0
0
0
0
0
0
0
0
0
0
0
0
0
0
0
0
0
0
0
0
0
0
0
0
0
0
0
0
0
0
0
0
0
0
0
0
0
0
0
0
0
0
0
0
0
0
0
0
0
0
0
1
0
0
0
0
0
0
0
0
0
0
0
0
0
0
0
0
0
0
0
0
0
0
0
0
0
0
0
0
0
0
0
0
0
0
0
0
0
0
0
0
0
0
0
0
0
0
0
0
0
0
0
0
0
0
0
0
0
0
0
0
0
0
0
0
0
0
0
0
0
0
0
0
0
0
0
0
0
0
0
0
0
0
0
0
0
0
0
0
0
0
0
0
0
0
0
0
0
0
0
0
0
0
0
0
0
0
0
0
0
0
0
0
0
0
0
0
0
0
0
0
0
0
0
0
0
0
0
0
0
0
0
0
1
0
0
0
0
0
0
0
0
0
0
0
0
0
0
0
0
0
0
0
1
0
0
0
0
0
0
0
0
0
0
0
0
0
0
0
0
0
0
0
0
0
0
0
0
0
0
0
0
0
0
0
0
0
0
0
0
0
0
0
0
0
0
0
0
0
0
0
0
0
0
0
0
0
1
0
0
0
0
0
0
0
0
0
0
0
0
0
0
0
0
0
0
0
0
0
0
0
1
0
0
0
0
0
0
0
0
0
0
0
0
0
0
0
0
0
0
0
1
0
0
0
1
0
0
0
0
0
0
0
0
0
0
0
0
0
0
0
0
0
0
0
0
0
0
0
0
0
1
0
0
0
0
0
0
0
1
0
0
0
0
0
0
0
0
0
0
0
0
0
0
0
0
0
0
0
0
0
0
0
0
0
0
1
0
0
0
0
0
0
0
1
0
0
0
0
0
0
1
0
0
0
0
0
0
0
0
0
0
0
0
0
0
0
0
0
0
0
0
0
0
0
0
0
0
0
0
0
0
0
0
0
0
0
0
0
0
1
0
0
0
0
0
1
0
0
0
0
0
0
0
1
0
0
0
0
0
0
0
0
0
0
0
0
0
1
0
0
0
0
0
0
0
0
0
0
0
0
0
0
0
0
0
0
0
0
0
0
0
0
0
0
0
0
0
0
0
0
0
0
0
0
0
0
0
0
0
0
0
0
0
0
0
0
0
0
0
0
0
1
0
0
0
0
0
0
0
0
0
0
0
0
0
0
0
0
0
0
0
1
0
0
0
0
0
0
0
0
0
1
0
0
0
0
0
0
0
0
0
0
0
0
0
0
0
0
0
0
0
0
0
0
0
0
0
0
0
0
0
1
0
1
0
0
0
0
0
0
0
0
0
0
0
0
0
0
0
0
0
0
0
0
0
0
0
0
0
0
0
1
0
0
0
1
0
0
0
0
0
0
0
0
0
0
0
0
0
0
0
0
0
0
0
0
0
0
0
0
0
0
0
0
1
0
0
0
0
0
0
0
0
0
0
0
0
0
0
0
0
0
0
0
0
0
0
0
0
0
1
0
0
0
0
0
0
0
0
0
0
0
0
0
0
0
0
0
0
0
0
0
0
0
1
0
0
0
0
0
0
1
0
0
0
0
0
0
0
0
0
0
0
1
0
0
0
0
0
0
0
0
0
0
0
0
0
0
0
0
0
0
0
0
1
0
0
0
0
0
0
0
0
0
0
0
1
0
0
0
0
0
0
0
0
0
0
0
0
0
0
0
0
0
0
0
0
0
1
0
0
0
0
0
0
0
0
0
1
1
0
1
0
1
0
0
0
0
0
0
0
0
0
0
0
1
0
0
0
0
0
1
1
0
0
0
0
0
0
1
0
0
0
0
0
1
1
1
0
0
0
0
0
0
0
0
0
0
0
0
1
1
0
0
1
0
0
0
0
0
1
0
0
0
1
0
1
0
0
0
0
0
0
0
1
0
0
0
0
0
0
0
1
0
0
1
0
0
0
0
0
0
0
0
0
0
0
0
0
0
0
1
0
0
0
0
0
0
0
0
0
0
0
0
0
0
0
0
0
0
0
0
0
0
0
0
0
0
0
0
0
0
0
0
0
0
0
0
1
0
0
0
0
0
0
1
0
0
0
1
0
0
0
0
0
0
0
0
0
0
0
1
0
0
0
0
0
0
0
0
0
0
0
0
0
0
0
0
0
0
0
0
0
0
0
0
0
0
0
0
0
0
0
0
0
0
0
0
0
0
0
0
1
1
0
0
0
0
0
0
0
0
0
0
0
0
0
1
0
0
0
0
0
0
0
0
0
0
0
0
0
0
0
0
0
0
0
0
0
0
0
0
0
0
0
0
0
0
0
0
0
0
0
0
0
0
0
0
0
0
0
0
0
0
0
0
0
0
0
0
0
0
0
0
0
0
0
0
0
0
0
0
0
0
0
0
0
0
0
0
1
1
0
0
0
0
0
0
0
0
1
0
0
0
0
0
0
0
0
0
0
0
0
0
0
0
0
0
0
0
0
0
0
0
1
0
0
0
0
0
0
0
0
0
0
0
0
0
0
0
0
1
0
0
0
0
0
0
0
0
0
0
0
0
0
0
0
0
0
0
0
0
0
0
0
0
0
0
0
0
0
0
0
0
0
0
0
0
0
0
0
0
0
0
0
0
0
0
0
0
0
0
0
0
0
0
0
0
0
0
0
0
0
0
0
0
0
0
0
0
0
0
0
0
0
0
0
0
0
0
0
0
0
0
0
0
0
0
0
0
0
0
1
1
0
0
0
0
0
1
0
0
0
0
0
0
0
0
0
0
0
0
1
0
0
0
0
0
0
0
0
0
0
0
0
0
0
0
0
0
0
0
0
0
0
0
0
0
0
0
0
0
0
0
0
0
0
0
0
0
0
0
0
0
0
0
0
0
0
0
0
0
0
0
0
0
1
0
1
0
0
0
0
0
0
0
0
0
0
0
0
0
0
0
0
0
0
1
0
0
0
0
0
0
0
0
0
0
0
0
0
0
0
0
0
0
0
0
0
0
0
0
0
0
0
0
0
0
0
0
0
0
0
0
0
0
0
0
0
0
0
0
0
0
0
0
0
0
0
0
0
0
0
0
0
0
0
0
0
0
0
0
0
0
0
0
0
0
1
0
0
0
0
0
0
0
0
0
0
1
0
0
0
0
0
0
0
0
0
0
0
0
0
0
0
0
0
0
0
0
0
0
0
0
0
0
0
0
0
0
0
0
0
0
0
0
0
1
0
0
0
0
0
0
0
0
0
0
0
0
0
0
0
0
0
0
0
0
0
0
0
0
0
0
0
0
0
0
0
0
0
0
0
0
0
0
0
0
0
0
0
0
0
0
0
0
0
0
0
0
0
0
0
0
0
0
0
0
0
0
0
0
0
0
0
0
0
0
0
0
0
0
0
0
0
0
0
0
0
1
0
0
0
0
0
0
0
0
0
0
0
0
0
0
0
0
0
0
0
0
0
0
0
0
0
0
0
0
0
0
0
0
0
0
0
0
0
0
0
0
0
0
0
0
0
0
0
0
0
0
0
0
0
0
0
0
0
0
0
0
0
0
0
0
0
0
0
0
0
0
0
0
0
0
0
0
0
0
0
0
0
0
0
0
0
0
0
0
0
0
0
0
0
0
0
0
0
0
0
0
0
0
0
0
0
0
0
0
0
0
0
0
0
0
0
0
0
0
0
0
0
0
0
1
0
0
0
0
0
0
0
0
0
0
0
0
0
0
0
0
0
0
0
0
0
0
0
0
0
0
0
0
0
0
0
0
0
0
0
0
0
0
0
0
0
0
0
0
0
0
0
0
0
0
0
0
0
0
0
0
0
0
0
0
0
0
0
0
0
0
0
0
0
0
0
0
0
0
0
0
0
0
0
0
0
1
0
0
0
0
0
0
0
1
0
0
0
0
0
0
0
0
0
0
0
0
0
0
0
0
0
0
0
0
0
0
0
0
0
0
0
0
0
0
0
0
0
0
0
0
0
1
0
0
0
0
0
0
0
0
0
0
0
0
0
0
0
0
0
0
0
0
0
1
0
0
0
0
0
0
0
0
0
0
0
0
1
1
0
0
0
0
0
0
0
0
0
0
0
0
0
0
0
1
1
0
1
0
0
0
0
0
0
0
0
0
1
0
0
0
0
0
0
1
0
0
0
0
0
0
0
0
0
0
1
0
0
0
0
1
0
1
0
0
0
0
0
0
0
1
0
0
0
1
0
0
0
1
0
1
1
0
0
1
1
0
0
0
1
0
0
0
1
0
0
0
0
0
0
0
0
0
1
0
0
0
0
0
0
1
0
0
0
0
0
0
0
0
0
0
0
0
0
0
0
0
0
0
0
0
0
0
0
0
0
0
0
1
0
0
1
0
0
0
0
0
0
0
0
0
0
0
0
0
0
0
0
0
0
1
0
0
1
0
0
0
0
0
0
0
0
0
0
0
1
0
0
1
0
0
0
0
0
0
0
0
0
0
0
1
1
0
0
0
0
0
0
0
0
0
0
0
0
1
0
0
0
0
0
0
0
0
0
0
0
0
0
0
0
0
0
1
0
0
0
0
0
0
0
0
0
0
0
0
0
0
0
0
0
1
0
0
0
0
0
0
0
0
0
0
0
0
0
0
0
0
0
0
0
0
0
0
0
0
0
0
0
0
0
0
0
0
0
0
0
0
0
0
0
0
1
0
0
0
0
0
0
0
0
0
0
0
0
0
0
0
0
0
0
0
0
0
0
0
0
0
0
0
0
0
0
0
0
0
0
0
0
0
0
0
0
0
0
0
0
0
1
0
0
0
0
0
0
0
0
0
0
0
0
0
0
0
0
0
0
0
0
0
0
0
0
0
0
0
0
0
0
0
0
0
0
0
0
0
0
0
0
0
0
0
0
0
0
0
1
0
0
0
0
0
0
0
0
0
0
1
0
0
0
0
0
0
0
0
0
0
0
0
0
0
0
1
0
0
1
0
0
0
0
0
0
0
0
0
0
0
0
0
0
0
0
0
0
0
0
0
0
0
1
0
0
0
0
0
0
0
0
0
0
0
0
0
0
0
0
0
0
0
0
0
0
0
0
0
0
0
0
0
0
0
0
0
0
0
1
0
0
0
0
0
0
0
0
0
0
0
0
0
0
0
0
0
0
0
0
0
0
0
0
0
0
0
0
0
0
0
0
0
0
0
0
0
0
0
0
0
0
0
0
0
0
0
0
0
0
0
0
0
0
0
0
0
0
0
0
0
0
0
0
0
0
0
0
0
0
0
0
0
0
0
0
1
0
0
0
0
0
0
0
0
0
0
0
0
0
0
0
0
0
0
0
0
0
0
0
0
0
0
0
0
0
0
0
0
0
0
0
0
0
0
0
1
0
0
0
0
0
0
0
0
0
0
0
0
1
1
0
0
0
0
0
0
0
0
0
0
0
0
0
0
0
0
0
0
0
0
0
0
0
0
0
0
0
0
0
0
0
0
0
0
0
0
0
0
0
0
0
0
0
0
0
0
0
0
0
0
0
0
0
0
0
0
0
0
0
0
0
0
0
0
0
0
0
0
0
0
0
0
0
0
0
0
0
0
0
0
0
0
0
0
0
0
0
0
0
0
0
0
0
0
0
0
0
0
0
0
0
1
0
1
0
0
0
0
0
0
0
1
1
1
1
0
0
0
0
0
0
0
0
0
0
0
0
0
0
0
0
0
0
0
0
0
0
0
0
0
0
0
0
1
1
0
0
0
0
0
0
0
0
0
0
0
0
0
0
0
0
0
0
1
0
0
0
0
0
0
0
1
1
0
1
1
0
0
1
0
0
0
0
0
0
0
1
0
1
0
0
0
0
0
0
0
0
0
0
0
0
0
0
0
0
0
0
0
0
0
0
0
0
0
0
0
1
1
0
0
0
1
1
0
0
0
0
1
0
0
1
0
1
0
0
0
0
0
1
0
0
0
1
0
0
0
0
0
0
0
0
0
0
0
0
0
0
0
0
0
0
0
0
0
0
0
0
0
0
0
1
0
0
0
0
0
0
1
0
0
0
0
0
0
0
0
0
0
0
0
0
0
0
0
0
0
0
0
0
0
0
0
0
0
0
0
0
1
0
1
0
0
0
0
0
0
0
1
0
0
0
0
0
0
0
0
0
0
0
1
0
0
0
0
0
0
0
0
0
1
0
0
0
0
0
0
0
1
0
0
0
0
0
0
0
1
0
0
0
0
0
0
0
0
0
0
0
0
0
0
0
0
0
0
0
1
0
1
0
0
0
0
0
1
0
0
0
0
0
0
0
0
0
0
0
0
0
0
0
0
0
0
0
0
0
0
0
0
0
1
0
1
0
0
0
0
0
0
0
0
0
1
0
0
0
0
0
1
0
0
0
0
0
0
0
0
0
0
0
0
0
0
0
1
0
0
0
0
0
0
0
0
1
0
0
0
0
0
0
0
0
0
0
0
0
0
0
0
0
0
0
0
0
0
0
0
0
0
0
0
0
0
0
1
0
0
0
0
0
0
0
0
0
0
0
0
0
0
0
0
1
0
0
0
0
0
0
0
0
1
0
0
0
0
0
0
0
0
0
1
0
0
0
0
0
1
0
0
0
0
0
0
0
0
0
0
0
0
0
0
0
0
0
0
0
1
0
0
0
0
0
0
1
0
0
0
0
0
0
0
0
1
0
0
0
0
0
0
0
0
0
0
0
0
0
0
1
0
0
1
0
0
0
1
0
0
0
0
0
0
0
0
0
0
0
0
0
0
0
0
1
0
0
0
0
0
0
0
0
0
0
1
0
1
0
0
0
0
0
0
1
0
0
0
0
0
0
0
0
0
0
0
0
0
0
0
0
0
0
0
0
0
0
0
0
0
0
0
1
1
0
0
0
0
0
0
1
0
0
0
0
0
0
0
0
0
0
0
0
0
1
0
0
0
0
0
0
0
1
0
0
0
0
0
0
0
0
0
0
0
0
0
0
0
0
0
0
0
0
0
0
0
0
0
0
0
1
0
0
0
0
0
0
0
0
0
0
1
0
0
1
0
0
0
0
0
0
0
0
0
0
0
0
0
0
0
0
0
0
0
0
0
0
0
0
0
0
0
0
0
1
0
0
0
0
0
0
0
1
0
0
0
0
0
0
0
1
0
0
0
0
1
0
0
0
0
0
0
0
0
0
0
0
1
0
1
0
0
0
1
0
				</DataArray>
				<DataArray type="Float64" Name="h" NumberOfComponents="1" Format="ascii">
1.0605401360
1.0605647696
1.0309161656
1.0387572063
1.0376628795
1.0358662707
1.0399699809
1.0539531163
1.0453920576
1.0597318463
1.0436215992
1.0320838985
1.0689858715
1.0455056943
1.0594902916
1.0773025603
1.0324365259
1.0649061193
1.0671787711
1.0396067402
1.0225853172
1.0758769389
1.0679051466
1.0317520068
1.0364468778
1.0776503906
1.0810291711
1.0714180515
1.0569700911
1.0501846023
1.0432059719
1.0611954507
1.0791095361
1.0250527416
1.0139642692
1.0425646704
1.0163271840
1.0766498404
1.0776282096
1.0255918853
1.0486052613
1.0535182977
1.0777793918
1.0687161512
1.0337693088
1.0687053898
1.0715661537
1.0125559676
1.0056219984
1.0136686524
1.0183299899
1.0559681673
1.0611551735
1.0337406012
1.0395533829
1.0832868800
1.0598468430
1.0071365164
1.0118878212
1.0235939130
1.0024034914
1.0023274310
1.0056180159
1.0461993124
1.0727814490
1.0680811051
1.0275225580
1.0136653794
1.0039329318
1.0035092459
1.0086299031
1.0287681517
1.0829090542
1.0259351783
1.0174917887
1.0870431775
1.0095071656
1.0051858572
1.0083147906
1.0824093759
1.0011532912
1.0617551436
1.0005477904
1.0277202644
1.0859089212
1.0823472225
1.0009289849
1.0472539222
1.0080047005
1.0018969010
1.0019772476
1.0842859335
1.0031042580
1.0055431947
1.0724600435
1.0772796152
1.0673432746
1.0838542472
1.0784965481
1.0014106122
1.0010507857
1.0008047346
1.0557520210
1.0064987749
1.0667700741
1.0457999220
1.0814246873
1.0033510063
1.0078620239
1.0640904673
1.0089207671
1.0033426149
1.0032701836
1.0033234699
1.0361732858
1.0001966950
1.0454514309
1.0592009972
1.0009923750
1.0195588596
1.0625417428
1.0573613139
1.0877383003
1.0548109275
1.0055151450
1.0019145619
1.0269835093
1.0585102001
1.0001561431
1.0002778566
1.0005708622
1.0748050723
1.0132919137
1.0000422773
1.0550729291
1.0010203472
1.0784174324
1.0000525794
1.0003295294
1.0818469416
1.0629991890
1.0535704974
1.0002819293
1.0835050098
1.0842843132
1.0006700035
1.0804213031
1.0000261524
1.0583314835
1.0000046663
1.0783138257
1.0000199798
1.0000238568
1.0000008845
1.0004689606
1.0000701437
1.0000037594
1.0672651515
1.0000039242
1.0617791777
1.0835597355
1.0000202474
1.0804886911
1.0645948041
1.0638789910
1.0001286651
1.0852580931
1.0818187360
1.0571840194
1.0000357091
1.0000055924
1.0575011942
1.0000015329
1.0696254188
1.0870180293
1.0000000449
1.0852981410
1.0000279212
1.0000002213
1.0669177311
1.0001319111
1.0885846217
1.0642418641
1.0893264670
1.0586214277
1.0569561802
1.0869139371
1.0000006195
1.0575651386
1.0536874936
1.0899478038
1.0000002955
1.0608575306
1.0883205694
1.0000000857
1.0000625984
1.0730193633
1.0910804079
1.0895330127
1.0000008585
1.0536437751
1.0878758976
1.0556172658
1.0000007219
1.0919979683
1.0726965859
1.0831332716
1.0797844339
1.0906133118
1.0865286163
1.0912358168
1.0583911670
1.0727334717
1.0717263546
1.0814729037
1.0924371210
1.0848126964
1.0754133833
1.0898354094
1.0668091350
1.0914356401
1.0055171597
1.0882443074
1.0280351413
1.0893769078
1.0000051434
1.0005414203
1.0666489691
1.0926791843
1.0018765807
1.0000020584
1.0136512286
1.0815305649
1.0000010480
1.0000280446
1.0473287308
1.0927849738
1.0853685378
1.0653897830
1.0890370735
1.0940315268
1.0822627645
1.0774794385
1.0881454661
1.0813567446
1.0845762987
1.0749437084
1.0914489331
1.0837103880
1.0793197958
1.0871649858
1.0925740804
1.0774576507
1.0938468812
1.0951804143
1.0769165567
1.0863513445
1.0829196783
1.0717252652
1.0199220285
1.0908776971
1.0930948782
1.0782434836
1.0385257132
1.0871599594
1.0000618838
1.0000117714
1.0941535735
1.0000022234
1.0087472666
1.0009882744
1.0898773089
1.0032494395
1.0577961183
1.0373622738
1.0951678610
1.0886822084
1.0601090548
1.0201948559
1.0919431093
1.0010198418
1.0000025964
1.0000120815
1.0000595793
1.0031867977
1.0087790817
1.0759896703
1.0873242321
1.0789260445
1.0806483539
1.0867853164
1.0956623284
1.0838857580
1.0833758276
1.0916006266
1.0970650209
1.0907746251
1.0854265642
1.0817866018
1.0769164547
1.0803932336
1.0849625630
1.0943423372
1.0981122007
1.0965875891
1.0894252831
1.0955738216
1.0887683833
1.0805508817
1.0955338898
1.0705898108
1.0866905184
1.0000052786
1.0964530035
1.0017094148
1.0284084057
1.0937021643
1.0053079524
1.0000250370
1.0926757116
1.0505404487
1.0920400984
1.0133457187
1.0001257666
1.0930784664
1.0852140548
1.0722608706
1.0000265116
1.0493851681
1.0134269061
1.0017829694
1.0001179021
1.0000059725
1.0973537771
1.0287366711
1.0946687013
1.0051779693
1.0889239527
1.0001639976
1.0945532833
1.1004159968
1.0936656240
1.0813099057
1.0988172561
1.0851677378
1.0893302978
1.0848745982
1.0823377054
1.0038376086
1.0999986954
1.1012816474
1.0730436928
1.0867881818
1.0821040048
1.0010263463
1.0919036377
1.0996361197
1.0990314032
1.0913034780
1.0462149533
1.0251785006
1.0001405571
1.0803947663
1.0975605867
1.0995334169
1.0869666596
1.1060686200
1.1024314176
1.0967237918
1.0822497768
1.0945405856
1.0149937287
1.0830509380
1.0000497873
1.0388885832
1.0628507750
1.0002388062
1.0795096438
1.0028229781
1.0974153253
1.0987841373
1.0083385399
1.0000116455
1.0970042698
1.0195407755
1.0958139852
1.0949822481
1.0811095181
1.0922243802
1.1119913256
1.0000128045
1.0995120822
1.0620723956
1.1140161108
1.0002193563
1.0390269119
1.0742672370
1.0894584322
1.0980364503
1.1168060147
1.0957451415
1.0029739737
1.1167209220
1.0197920724
1.1157933323
1.0000540912
1.0080732940
1.0967449420
1.0912259782
1.1152683408
1.0822169285
1.1025106446
1.0376997892
1.1013148170
1.0912945567
1.0011798219
1.0073062811
1.0970862463
1.0480768271
1.0985360683
1.1081640940
1.1101283464
1.0861406930
1.0107097027
1.0005106637
1.0831339147
1.0001855175
1.0824503101
1.0330200581
1.1022900390
1.0985334274
1.0004315246
1.0816915077
1.0056495457
1.0985214311
1.0899292238
1.0254636022
1.0182581791
1.0007271129
1.1099175831
1.1025723475
1.0992357665
1.0885203200
1.0645843168
1.1052240277
1.0942629631
1.0970823942
1.1013209171
1.0624742272
1.0413029892
1.0881637577
1.0000459332
1.0822525731
1.1006045489
1.1012394980
1.1101276036
1.0003417631
1.0079395943
1.0996227542
1.0022307049
1.0829228952
1.1026514115
1.0940856211
1.0000239344
1.0994758221
1.0506350838
1.0936665893
1.0969548134
1.1186221019
1.0872236563
1.0004278600
1.1010946536
1.0125947426
1.1052560659
1.1012118439
1.0887229881
1.0015770441
1.1177238730
1.0827353757
1.0776052260
1.0781469344
1.1058561292
1.0904033310
1.0001033130
1.0362056286
1.0136235148
1.0047566953
1.0823593120
1.0736984757
1.0912956124
1.1043426485
1.0986704562
1.0006728492
1.0831447867
1.0742681460
1.1061665513
1.0977413653
1.0063522435
1.0279643539
1.0731818431
1.0978752120
1.0566283882
1.1134097023
1.0980367500
1.1168056313
1.1036588829
1.0948817450
1.0829021399
1.1051221459
1.1023051349
1.0823586400
1.1059486144
1.1002421859
1.1010943844
1.1110596906
1.0827383707
1.0927800242
1.1058356612
1.0827961224
1.1020960312
1.1059497631
1.1005498126
1.1036026135
1.0000843127
1.0936163923
1.0493528860
1.0542003867
1.1003697609
1.1141092950
1.1082310968
1.0676570507
1.0940855848
1.0974847978
1.0868370531
1.0872256099
1.1220170513
1.0831478397
1.0977409236
1.0829052702
1.1141086296
1.1058571571
1.1237200984
1.1089561368
1.0829035013
1.1223914921
1.0980647622
1.0651248776
1.1052569837
1.1240795403
1.0958361494
1.0006463805
1.1177529799
1.0898561104
1.1169578185
1.0835332582
1.1137529450
1.1082226113
1.0801839499
1.0199950613
1.0026703374
1.1072558456
1.0672273697
1.0079372850
1.0904042110
1.1196141928
1.0182220184
1.1036591783
1.0936665600
1.1012193713
1.0000459694
1.1051590182
1.1019197495
1.0814506614
1.1008871461
1.0985363357
1.0818064161
1.1036866092
1.1077904583
1.1002400683
1.1116828570
1.1020891496
1.0624119676
1.0978738060
1.0361948783
1.1047293496
1.0868776163
1.0007278755
1.0376337621
1.0970916557
1.0986878847
1.0001858668
1.1260983011
1.1059718978
1.1205948145
1.1174939953
1.1006032943
1.1121153903
1.0822256831
1.0012478186
1.1195785178
1.1166783048
1.1099163849
1.0049857662
1.0960869114
1.0831084556
1.1234761296
1.1288509172
1.0268623871
1.0072958692
1.0299533041
1.1304169888
1.0840969581
1.0515116526
1.0728899787
1.1077898906
1.0910004263
1.1013824669
1.0868387438
1.1051596276
1.1082314619
1.0936164565
1.0002183708
1.1101779159
1.0826150868
1.0827987076
1.1067354603
1.0884376897
1.0345083976
1.0835359163
1.1290990886
1.1288508076
1.1062476166
1.1331415556
1.1082226477
1.1020962972
1.1072564869
1.0898568579
1.0845785242
1.0157391993
1.0990037299
1.1024367881
1.0829059899
1.1310409806
1.1267533327
1.1132959122
1.0004549523
1.0777422825
1.1169574969
1.1290513981
1.0113158306
1.1295199342
1.1066672357
1.0807920909
1.0887479934
1.1486883914
1.1125067240
1.1129233826
1.0980647479
1.0976124532
1.1011384046
1.0816097948
1.0840100755
1.1011250235
1.0606710314
1.0059679609
1.1010029471
1.0709158567
1.1103839526
1.0811917054
1.0948009591
1.0026207749
1.0007731653
1.1220166896
1.1333736352
1.1258458316
1.1202047566
1.0858782781
1.1287925268
1.1358033270
1.0010804313
1.0100267326
1.1231106103
1.1258956261
1.0719554463
1.1282264269
1.1299894290
1.1305891437
1.0382575665
1.0036119267
1.0185048560
1.1197800716
1.1047622510
1.1157183917
1.0972959636
1.1162136315
1.0461986793
1.0246958531
1.0887705249
1.0704144071
1.1345721140
1.0109265085
1.0028728104
1.0740644868
1.0157392073
1.0406675628
1.0299539560
1.0012463420
1.1177529814
1.0068118738
1.0718205958
1.0935879417
1.0015492729
1.0728901671
1.0039572280
1.0009363047
1.0672278491
1.0019859641
1.0509338282
1.0259652513
1.0077324881
1.0008756328
1.0700001363
1.0570633805
1.0498455959
1.0498800471
1.0571094792
1.0366991619
1.0320765890
1.0436111326
1.0479218081
1.0448688974
1.0358439906
1.0376908255
1.0449118325
1.0454165568
1.0594752978
1.0399520341
1.0545107247
1.0479350018
1.0367111104
1.0643588566
1.0649051634
1.0387626287
1.0309288439
1.0671480871
1.0501814670
1.0738857593
1.0293905053
1.0539652249
1.0776518510
1.0364443001
1.0597310563
1.0725259967
1.0689965558
1.0258817870
1.0796722939
1.0701389816
1.0545146804
1.0432035230
1.0643653679
1.0250530030
1.0791093620
1.0611356705
1.0814586585
1.0255787458
1.0805423629
1.0324348227
1.0773013584
1.0777618912
1.0775883403
1.0293942587
1.0738844844
1.0485503926
1.0455101025
1.0396037637
1.0258903510
1.0679607975
1.0164530955
1.0758862200
1.0198940442
1.0725341848
1.0225883788
1.0701703576
1.0748015745
1.0657130548
1.0125504287
1.0796709680
1.0337364191
1.0183300818
1.0715102819
1.0714961681
1.0317761867
1.0570416558
1.0597603469
1.0812245339
1.0810292761
1.0196100275
1.0692251094
1.0805659075
1.0431158414
1.0108692495
1.0814571079
1.0610761265
1.0164655100
1.0089330503
1.0089830143
1.0748234950
1.0199015494
1.0263809048
1.0657887092
1.0426157824
1.0727128348
1.0766813376
1.0233148678
1.0139695613
1.0056169305
1.0136643708
1.0567223514
1.0163286549
1.0461366027
1.0431743765
1.0136499840
1.0161087528
1.0687929707
1.0259100544
1.0317349315
1.0287360363
1.0829102479
1.0045943886
1.0846636873
1.0784305780
1.0196212541
1.0017556216
1.0108692793
1.0535885734
1.0095022337
1.0086254182
1.0183806389
1.0174747675
1.0812453653
1.0796106014
1.0039325428
1.0125933835
1.0692227109
1.0035100598
1.0264051242
1.0233382591
1.0751862846
1.0568025480
1.0199322675
1.0271336150
1.0197523998
1.0056233473
1.0560448281
1.0089823241
1.0687844073
1.0616828361
1.0277201316
1.0493519166
1.0089308401
1.0136624471
1.0024035653
1.0023267963
1.0796336464
1.0020306967
1.0183958654
1.0118973697
1.0214792510
1.0317768568
1.0878186223
1.0850199703
1.0136599785
1.0125929051
1.0362071806
1.0396044443
1.0056734126
1.0045947973
1.0017550982
1.0832849041
1.0520011896
1.0122534210
1.0846577577
1.0337894582
1.0161231243
1.0236217619
1.0842899997
1.0071379336
1.0784649328
1.0031030383
1.0199453090
1.0064995647
1.0784658856
1.0494186430
1.0865805772
1.0271663176
1.0008050084
1.0357440302
1.0025005982
1.0367835384
1.0681504951
1.0010478081
1.0275049691
1.0079802058
1.0838494380
1.0010964586
1.0772535346
1.0393348485
1.0197280330
1.0014101440
1.0458362277
1.0752228213
1.0002769838
1.0520758515
1.0078565682
1.0033388057
1.0020307256
1.0122625877
1.0032688376
1.0362532896
1.0870288700
1.0135686990
1.0215032276
1.0051878953
1.0850157028
1.0012270355
1.0878101006
1.0089285913
1.0640240014
1.0056760100
1.0025012255
1.0002782296
1.0435840083
1.0010960924
1.0823406375
1.0573371292
1.0128032949
1.0079794251
1.0695879571
1.0393893978
1.0368099481
1.0859000146
1.0824104118
1.0009289776
1.0005504525
1.0011532649
1.0453828583
1.0083164875
1.0356910946
1.0625475485
1.0472402527
1.0865717040
1.0012276131
1.0747952852
1.0198117324
1.0738777810
1.0019118341
1.0051476772
1.0019780593
1.0080093153
1.0724853666
1.0055426460
1.0005210840
1.0019022202
1.0019786192
1.0019099673
1.0045294777
1.0055146941
1.0269553490
1.0135346949
1.0002772529
1.0558019707
1.0005466263
1.0274700733
1.0436514252
1.0695848448
1.0128119475
1.0033669847
1.0550743022
1.0010191200
1.0132851773
1.0667661643
1.0673225552
1.0842959463
1.0358080278
1.0535699827
1.0087859242
1.0738728334
1.0005222936
1.0033250257
1.0033554923
1.0769279109
1.0045286289
1.0019791843
1.0362150573
1.0583340536
1.0197690807
1.0002815648
1.0564426728
1.0001970362
1.0051502528
1.0006694995
1.0019124115
1.0814039301
1.0555771227
1.0887400758
1.0451512926
1.0000129385
1.0005480587
1.0033678569
1.0758644636
1.0000723008
1.0010453568
1.0004940249
1.0195744458
1.0273735796
1.0000199811
1.0591994251
1.0003968395
1.0009936151
1.0513017935
1.0783143235
1.0000238281
1.0004691329
1.0769247278
1.0564433029
1.0818184452
1.0638826003
1.0087867724
1.0000085942
1.0555756968
1.0602721305
1.0000114436
1.0534407043
1.0357207165
1.0548117119
1.0001562524
1.0835619607
1.0616938639
1.0877196643
1.0005713887
1.0490919458
1.0804882929
1.0001986831
1.0000201823
1.0585090717
1.0000039140
1.0004940532
1.0784142990
1.0000422821
1.0000185459
1.0626910586
1.0010483000
1.0000924429
1.0000526445
1.0000015314
1.0459706825
1.0732914535
1.0003294333
1.0513021894
1.0450168914
1.0758631141
1.0000129446
1.0887288676
1.0003969607
1.0000356152
1.0001236076
1.0000723520
1.0000055910
1.0696278515
1.0000046803
1.0642418700
1.0697721833
1.0616893984
1.0602709704
1.0002752011
1.0000085235
1.0000015708
1.0835011860
1.0000262461
1.0804215929
1.0669188718
1.0000114865
1.0490932543
1.0533531910
1.0670174905
1.0629970547
1.0001314953
1.0001987593
1.0853032355
1.0001798416
1.0818454343
1.0000086160
1.0618276011
1.0575639671
1.0000703313
1.0000037631
1.0732898945
1.0794249672
1.0000185793
1.0511424073
1.0459695386
1.0626022657
1.0586199461
1.0000926187
1.0000008850
1.0672627530
1.0001235960
1.0869239006
1.0834058344
1.0000000857
1.0852511658
1.0618272222
1.0002763014
1.0000622908
1.0670176587
1.0000015739
1.0001797822
1.0000598142
1.0593891493
1.0000085386
1.0697279771
1.0605620602
1.0000002953
1.0000630681
1.0645939181
1.0001291290
1.0883340884
1.0000121546
1.0617796654
1.0879030218
1.0000001288
1.0575024372
1.0556153711
1.0870100117
1.0000007205
1.0793743590
1.0571855856
1.0536420191
1.0511426464
1.0895452911
1.0000002918
1.0000002216
1.0696116010
1.0593901087
1.0605616242
1.0583897429
1.0000122050
1.0000600744
1.0700601046
1.0001337596
1.0885736287
1.0000630549
1.0000000449
1.0833785924
1.0590264830
1.0573291779
1.0000280688
1.0727329249
1.0906246223
1.0899350473
1.0000020535
1.0000001289
1.0536888749
1.0000002920
1.0000019069
1.0000003873
1.0893074205
1.0569588416
1.0000006205
1.0914480341
1.0749431400
1.0845761245
1.0756297450
1.0813531015
1.0910683551
1.0573300242
1.0934184711
1.0635969354
1.0881523948
1.0777495149
1.0696108370
1.0927935065
1.0608582072
1.0628193419
1.0001345626
1.0730189194
1.0691030792
1.0829169924
1.0795524499
1.0938530976
1.0863548985
1.0774557056
1.0914584964
1.0590267071
1.0653906437
1.0700598287
1.0000050671
1.0946407345
1.0919877818
1.0000019114
1.0088042911
1.0898863131
1.0000003875
1.0375406130
1.0919530116
1.0000120270
1.0010152714
1.0001330729
1.0760855275
1.0941562489
1.0032468391
1.0000008591
1.0200211414
1.0871949164
1.0000022220
1.0002703538
1.0000614614
1.0579676981
1.0912249091
1.0867855323
1.0808712247
1.0668089816
1.0907807768
1.0956654446
1.0777514499
1.0934114064
1.0756303961
1.0695284651
1.0959949618
1.0833714444
1.0789243378
1.0635974075
1.0865223334
1.0797869106
1.0831340358
1.0726965638
1.0898249831
1.0849598337
1.0805475767
1.0628191416
1.0887720148
1.0943480775
1.0754142238
1.0924274142
1.0965876505
1.0819337935
1.0748096057
1.0848099664
1.0795554827
1.0814750501
1.0691023813
1.0136067191
1.0926826282
1.0971532746
1.0946672785
1.0852666786
1.0495958327
1.0814744044
1.0002721889
1.0000281989
1.0000263633
1.0926706668
1.0000010482
1.0002621269
1.0134941200
1.0017790683
1.0882352523
1.0000050836
1.0018811285
1.0471723136
1.0279190373
1.0964496597
1.0920484810
1.0707360960
1.0285716999
1.0893546701
1.0005441435
1.0001339017
1.0000052738
1.0946378306
1.0000051595
1.0001248713
1.0053182732
1.0005091441
1.0055130474
1.0665317089
1.0889243180
1.0827266319
1.0774805104
1.0695285633
1.0813071612
1.0853690462
1.0940259783
1.0986354589
1.0848706971
1.0959954516
1.0822669216
1.0936697899
1.0988163440
1.0890311083
1.0808750245
1.0867859954
1.0821001460
1.0748093160
1.0790509460
1.0837134812
1.0925667136
1.0995300725
1.0833438269
1.0951775768
1.0819382273
1.0913063033
1.0975624690
1.0871620207
1.0793223101
1.0967404433
1.0599284771
1.0912390779
1.0000025962
1.0951686288
1.0029749731
1.0200912974
1.0958178168
1.0031875487
1.0005120577
1.0004841772
1.0000538012
1.0997196884
1.0908701329
1.0622384957
1.0886519326
1.0198933080
1.0000599721
1.0949801871
1.0781457652
1.0811849660
1.0000118216
1.0971562273
1.0009061662
1.0383406597
1.0087188821
1.0009921416
1.0002374791
1.0000116313
1.0987798173
1.0390664053
1.0930896432
1.0083679825
1.0002637915
1.0011796122
1.0985286385
1.1015088171
1.0481111224
1.0873245370
1.0827311139
1.0003163516
1.0034129371
1.0970881621
1.1001152879
1.1022878136
1.0915962126
1.0718571533
1.0107190683
1.0002734429
1.0806507112
1.0970639687
1.0986397962
1.0861376911
1.0912948301
1.0838901331
1.1025113350
1.1059110619
1.0899378690
1.0824471073
1.0971091312
1.0235416236
1.0838499505
1.0022474510
1.0988576633
1.1026485436
1.0616362956
1.0854293703
1.0817901735
1.0000828052
1.0018192539
1.0942645597
1.0988784333
1.1012389338
1.0894227952
1.0583700407
1.0172544878
1.0000843225
1.0790517116
1.0955702771
1.0981140224
1.0842634528
1.0885188087
1.0833482409
1.1038933626
1.1043477762
1.0942532067
1.0816077221
1.0898691480
1.0097655042
1.0829192041
1.1120636224
1.0001029193
1.1024123834
1.0285871122
1.1180954671
1.0008473109
1.0737820967
1.0001186278
1.0776041036
1.0749654285
1.0921064454
1.0047641857
1.0912953051
1.1205239225
1.0986694137
1.0009090571
1.0973569966
1.1159037479
1.0051675806
1.1143572315
1.0000059717
1.0994768916
1.0280644141
1.0936973574
1.0930724472
1.0721237970
1.1172612087
1.0948789354
1.1134095688
1.0000239063
1.1012095618
1.0503438157
1.1166789286
1.0004265487
1.0507653970
1.0004864658
1.0791709512
1.0768888139
1.0846301426
1.0015352526
1.0942595502
1.1196996662
1.0969472551
1.0017120944
1.0997240493
1.1195787087
1.0132843853
1.1186226281
1.0000251557
1.0126358878
1.0955367963
1.0866436080
1.1177238948
1.0887435426
1.1008234079
1.0379704222
1.0273434446
1.0014124258
1.1058367558
1.1001130593
1.1005521464
1.0998564241
1.0893304408
1.0006459986
1.0867837451
1.0044627557
1.0006455486
1.1090404635
1.0945508648
1.0364027727
1.0974810759
1.1059103032
1.0975897880
1.1076717948
1.1022135925
1.0851715011
1.0067468285
1.0002734944
1.0740388189
1.0199998846
1.0364450954
1.0676642272
1.0000930313
1.0823408293
1.1017167057
1.0235240042
1.1004176165
1.1060680958
1.1081650331
1.0006464852
1.0026709012
1.0975931171
1.0974876284
1.0007820692
1.0718361031
1.0034113243
1.0068168075
1.0838542294
1.1015122143
1.0971057853
1.0831211421
1.0005106207
1.0999969502
1.0177292685
1.0120678161
1.0330338437
1.0003861613
1.1076396509
1.1024305149
1.1012327914
1.0973968984
1.0869689160
1.0003165158
1.0754516290
1.0024829786
1.1070306212
1.0919019814
1.0251504184
1.0955909687
1.1098885331
1.1098893410
1.1005148951
1.0842671770
1.0038350173
1.0010263791
1.0503477185
1.0305974123
1.0803060586
1.0000256219
1.0816095868
1.0991459892
1.0985214795
1.0461916163
1.0990309704
1.1076713649
1.0002184131
1.0049373567
1.0967215165
1.0988250422
1.0002252497
1.0898595668
1.0097600160
1.0037366430
1.0830548438
1.1012848872
1.0988814008
1.0730171023
1.0913008615
1.0000128035
1.0515129279
1.0049862036
1.0015365536
1.0970023278
1.0781478228
1.0388808437
1.0942598407
1.1019211209
1.0894454225
1.0957473449
1.1157927928
1.0012479147
1.0845410637
1.0749663581
1.0861777003
1.0002202899
1.1117810484
1.0980357664
1.0113163410
1.0080501457
1.0781455072
1.1001767935
1.0310058302
1.1120638285
1.0894588374
1.1156261727
1.1156256843
1.1029044907
1.0995142789
1.0821514755
1.0009205734
1.1152683832
1.1197947061
1.0829554578
1.0795109483
1.1036866478
1.1034624607
1.0755150306
1.0802611683
1.1047336220
1.0716776414
1.0958926873
1.0884750921
1.0000499865
1.0268632374
1.0089842387
1.0028218196
1.0820966953
1.0627095476
1.0846305138
1.1029769053
1.0974194719
1.1197942665
1.0004549982
1.0835996681
1.0768899017
1.0847739174
1.0008492824
1.1059717557
1.0947926140
1.0040017574
1.0194603340
1.0755158618
1.0946416234
1.0451097629
1.1119914960
1.0921067173
1.1196992844
1.1072465113
1.1008822543
1.1024149999
1.0922130711
1.0004919242
1.1172612196
1.0827578132
1.0791722430
1.0860494060
1.1045041928
1.1014949904
1.0802548946
1.0781449213
1.1042376119
1.0991478369
1.1209138187
1.0845445316
1.0980350850
1.1090395928
1.0829586105
1.0867791233
1.1099166871
1.1045051200
1.1269443525
1.1040154693
1.1030617409
1.0822743318
1.1235595146
1.0015503754
1.1056284061
1.0997892463
1.0668903435
1.1042391216
1.1238763218
1.0997870297
1.0942481932
1.1022120947
1.1012276698
1.0067525289
1.0000828307
1.1110603577
1.1038934037
1.0015501362
1.1193609736
1.0972670469
1.0379649435
1.0172311422
1.1151148592
1.0620928865
1.1008245409
1.0847236649
1.0998540132
1.0945357790
1.1116503954
1.1173224484
1.0056516441
1.1074466546
1.0659180275
1.0001641501
1.0106402749
1.1043467743
1.0558308336
1.0011381777
1.1095794034
1.0726299602
1.0558206791
1.0134620487
1.0913008419
1.1232554666
1.0945110969
1.0880940928
1.0861804689
1.0149857251
1.1251123614
1.0836031842
1.0947918943
1.1131080576
1.0827603083
1.0973939533
1.1116496019
1.1003719685
1.1047350396
1.1271994523
1.1025709448
1.1098406986
1.0826874236
1.1258957303
1.1017917737
1.0578460208
1.1029053913
1.1278941473
1.1013170145
1.0996205265
1.1052228641
1.0935878003
1.0001405516
1.0493568127
1.0007819347
1.1204230125
1.0924723625
1.0645786501
1.1189471276
1.0495820488
1.0826790340
1.1005128005
1.0011383521
1.1131086299
1.1154707031
1.1089503724
1.0718202218
1.0177263242
1.0022303313
1.1093668019
1.0563309042
1.0412946575
1.0068154325
1.0884765173
1.1222252858
1.0881588439
1.0847645587
1.0847766782
1.0120401044
1.1008822320