<VTKFile type="UnstructuredGrid" version="0.1">
	<UnstructuredGrid>
		<Piece NumberOfPoints="1862" NumberOfCells="3498">
			<CellData>
				<DataArray type="Int32" Name="type" NumberOfComponents="1" Format="ascii">
0
0
0
0
0
0
0
0
0
0
0
0
0
0
0
0
1
0
0
1
0
0
0
0
0
0
0
0
0
0
0
0
0
1
0
0
0
0
0
0
0
0
0
0
0
0
0
0
0
0
1
0
0
0
0
0
0
0
0
0
0
1
0
0
0
0
0
0
0
0
0
0
0
0
0
0
0
0
0
0
0
0
0
0
0
0
0
0
0
0
0
0
0
0
0
0
0
0
0
0
0
0
0
0
0
0
0
0
0
0
0
0
0
0
0
0
0
0
0
0
0
0
0
1
0
0
0
0
0
0
0
0
0
0
0
0
0
0
0
0
0
0
0
0
0
0
0
0
0
0
0
1
0
1
1
0
0
0
0
0
0
0
0
0
0
0
0
0
1
0
1
0
0
0
0
1
0
0
0
0
0
0
0
0
1
1
0
0
0
0
0
1
0
0
0
0
0
0
0
0
1
0
0
0
0
0
0
0
0
0
0
0
0
0
0
0
0
0
0
0
0
0
0
0
0
0
0
0
0
0
0
0
0
1
0
0
0
0
0
0
0
0
0
0
0
0
0
0
0
0
0
0
0
0
0
0
0
0
0
0
0
0
0
0
0
0
0
0
0
0
0
0
0
0
0
0
0
0
0
0
0
1
0
0
0
0
0
0
0
0
0
0
0
0
0
0
0
0
0
0
0
0
0
0
0
0
0
0
0
0
0
0
0
0
0
0
0
0
0
0
0
0
0
0
0
0
0
0
0
0
0
0
1
0
0
0
0
0
0
0
0
0
0
0
0
0
0
0
0
0
0
0
0
0
0
0
0
0
0
0
0
0
0
0
0
0
0
0
0
0
0
0
0
0
0
0
0
0
0
0
0
0
0
0
0
0
0
0
0
0
1
0
0
0
0
0
0
0
0
0
0
0
0
0
0
0
0
0
0
0
0
0
0
0
0
0
0
0
0
0
0
0
0
0
0
0
0
0
0
0
0
0
0
0
0
0
0
0
0
0
0
0
0
0
0
0
0
0
0
0
0
0
0
0
0
0
0
0
0
0
0
0
0
0
0
0
0
0
0
0
0
0
0
0
0
0
0
0
0
0
0
0
0
0
0
0
0
0
0
0
0
0
0
0
0
0
0
0
0
0
0
0
0
0
0
0
0
0
0
0
0
0
0
0
0
0
0
0
0
0
0
0
0
1
0
0
0
0
0
0
0
0
0
0
0
0
0
0
0
0
0
0
0
1
0
0
0
0
0
0
0
0
0
0
0
0
0
0
0
0
0
0
0
0
0
0
0
0
0
0
0
0
0
0
0
0
0
0
0
0
0
0
0
0
0
0
0
0
0
0
0
0
0
0
0
0
0
1
0
0
0
0
0
0
0
0
0
0
0
0
0
0
0
0
0
0
0
0
0
0
0
1
0
0
0
0
0
0
0
0
0
0
0
0
0
0
0
0
0
0
0
1
0
0
0
1
0
0
0
0
0
0
0
0
0
0
0
0
0
0
0
0
0
0
0
0
0
0
0
0
0
1
0
0
0
0
0
0
0
1
0
0
0
0
0
0
0
0
0
0
0
0
0
0
0
0
0
0
0
0
0
0
0
0
0
0
1
0
0
0
0
0
0
0
1
0
0
0
0
0
0
1
0
0
0
0
0
0
0
0
0
0
0
0
0
0
0
0
0
0
0
0
0
0
0
0
0
0
0
0
0
0
0
0
0
0
0
0
0
0
1
0
0
0
0
0
1
0
0
0
0
0
0
0
1
0
0
0
0
0
0
0
0
0
0
0
0
0
1
0
0
0
0
0
0
0
0
0
0
0
0
0
0
0
0
0
0
0
0
0
0
0
0
0
0
0
0
0
0
0
0
0
0
0
0
0
0
0
0
0
0
0
0
0
0
0
0
0
0
0
0
0
1
0
0
0
0
0
0
0
0
0
0
0
0
0
0
0
0
0
0
0
1
0
0
0
0
0
0
0
0
0
1
0
0
0
0
0
0
0
0
0
0
0
0
0
0
0
0
0
0
0
0
0
0
0
0
0
0
0
0
0
1
0
1
0
0
0
0
0
0
0
0
0
0
0
0
0
0
0
0
0
0
0
0
0
0
0
0
0
0
0
1
0
0
0
1
0
0
0
0
0
0
0
0
0
0
0
0
0
0
0
0
0
0
0
0
0
0
0
0
0
0
0
0
1
0
0
0
0
0
0
0
0
0
0
0
0
0
0
0
0
0
0
0
0
0
0
0
0
0
1
0
0
0
0
0
0
0
0
0
0
0
0
0
0
0
0
0
0
0
0
0
0
0
1
0
0
0
0
0
0
1
0
0
0
0
0
0
0
0
0
0
0
1
0
0
0
0
0
0
0
0
0
0
0
0
0
0
0
0
0
0
0
0
1
0
0
0
0
0
0
0
0
0
0
0
1
0
0
0
0
0
0
0
0
0
0
0
0
0
0
0
0
0
0
0
0
0
1
0
0
0
0
0
0
0
0
0
1
1
0
1
0
1
0
0
0
0
0
0
0
0
0
0
0
1
0
0
0
0
0
1
1
0
0
0
0
0
0
1
0
0
0
0
0
1
1
1
0
0
0
0
0
0
0
0
0
0
0
0
1
1
0
0
1
0
0
0
0
0
1
0
0
0
1
0
1
0
0
0
0
0
0
0
1
0
0
0
0
0
0
0
1
0
0
1
0
0
0
0
0
0
0
0
0
0
0
0
0
0
0
1
0
0
0
0
0
0
0
0
0
0
0
0
0
0
0
0
0
0
0
0
0
0
0
0
0
0
0
0
0
0
0
0
0
0
0
0
1
0
0
0
0
0
0
1
0
0
0
1
0
0
0
0
0
0
0
0
0
0
0
1
0
0
0
0
0
0
0
0
0
0
0
0
0
0
0
0
0
0
0
0
0
0
0
0
0
0
0
0
0
0
0
0
0
0
0
0
0
0
0
0
1
1
0
0
0
0
0
0
0
0
0
0
0
0
0
1
0
0
0
0
0
0
0
0
0
0
0
0
0
0
0
0
0
0
0
0
0
0
0
0
0
0
0
0
0
0
0
0
0
0
0
0
0
0
0
0
0
0
0
0
0
0
0
0
0
0
0
0
0
0
0
0
0
0
0
0
0
0
0
0
0
0
0
0
0
0
0
0
1
1
0
0
0
0
0
0
0
0
1
0
0
0
0
0
0
0
0
0
0
0
0
0
0
0
0
0
0
0
0
0
0
0
1
0
0
0
0
0
0
0
0
0
0
0
0
0
0
0
0
1
0
0
0
0
0
0
0
0
0
0
0
0
0
0
0
0
0
0
0
0
0
0
0
0
0
0
0
0
0
0
0
0
0
0
0
0
0
0
0
0
0
0
0
0
0
0
0
0
0
0
0
0
0
0
0
0
0
0
0
0
0
0
0
0
0
0
0
0
0
0
0
0
0
0
0
0
0
0
0
0
0
0
0
0
0
0
0
0
0
0
1
1
0
0
0
0
0
1
0
0
0
0
0
0
0
0
0
0
0
0
1
0
0
0
0
0
0
0
0
0
0
0
0
0
0
0
0
0
0
0
0
0
0
0
0
0
0
0
0
0
0
0
0
0
0
0
0
0
0
0
0
0
0
0
0
0
0
0
0
0
0
0
0
0
1
0
1
0
0
0
0
0
0
0
0
0
0
0
0
0
0
0
0
0
0
1
0
0
0
0
0
0
0
0
0
0
0
0
0
0
0
0
0
0
0
0
0
0
0
0
0
0
0
0
0
0
0
0
0
0
0
0
0
0
0
0
0
0
0
0
0
0
0
0
0
0
0
0
0
0
0
0
0
0
0
0
0
0
0
0
0
0
0
0
0
0
1
0
0
0
0
0
0
0
0
0
0
1
0
0
0
0
0
0
0
0
0
0
0
0
0
0
0
0
0
0
0
0
0
0
0
0
0
0
0
0
0
0
0
0
0
0
0
0
0
1
0
0
0
0
0
0
0
0
0
0
0
0
0
0
0
0
0
0
0
0
0
0
0
0
0
0
0
0
0
0
0
0
0
0
0
0
0
0
0
0
0
0
0
0
0
0
0
0
0
0
0
0
0
0
0
0
0
0
0
0
0
0
0
0
0
0
0
0
0
0
0
0
0
0
0
0
0
0
0
0
0
1
0
0
0
0
0
0
0
0
0
0
0
0
0
0
0
0
0
0
0
0
0
0
0
0
0
0
0
0
0
0
0
0
0
0
0
0
0
0
0
0
0
0
0
0
0
0
0
0
0
0
0
0
0
0
0
0
0
0
0
0
0
0
0
0
0
0
0
0
0
0
0
0
0
0
0
0
0
0
0
0
0
0
0
0
0
0
0
0
0
0
0
0
0
0
0
0
0
0
0
0
0
0
0
0
0
0
0
0
0
0
0
0
0
0
0
0
0
0
0
0
0
0
0
1
0
0
0
0
0
0
0
0
0
0
0
0
0
0
0
0
0
0
0
0
0
0
0
0
0
0
0
0
0
0
0
0
0
0
0
0
0
0
0
0
0
0
0
0
0
0
0
0
0
0
0
0
0
0
0
0
0
0
0
0
0
0
0
0
0
0
0
0
0
0
0
0
0
0
0
0
0
0
0
0
0
1
0
0
0
0
0
0
0
1
0
0
0
0
0
0
0
0
0
0
0
0
0
0
0
0
0
0
0
0
0
0
0
0
0
0
0
0
0
0
0
0
0
0
0
0
0
1
0
0
0
0
0
0
0
0
0
0
0
0
0
0
0
0
0
0
0
0
0
1
0
0
0
0
0
0
0
0
0
0
0
0
1
1
0
0
0
0
0
0
0
0
0
0
0
0
0
0
0
1
1
0
1
0
0
0
0
0
0
0
0
0
1
0
0
0
0
0
0
1
0
0
0
0
0
0
0
0
0
0
1
0
0
0
0
1
0
1
0
0
0
0
0
0
0
1
0
0
0
1
0
0
0
1
0
1
1
0
0
1
1
0
0
0
1
0
0
0
1
0
0
0
0
0
0
0
0
0
1
0
0
0
0
0
0
1
0
0
0
0
0
0
0
0
0
0
0
0
0
0
0
0
0
0
0
0
0
0
0
0
0
0
0
1
0
0
1
0
0
0
0
0
0
0
0
0
0
0
0
0
0
0
0
0
0
1
0
0
1
0
0
0
0
0
0
0
0
0
0
0
1
0
0
1
0
0
0
0
0
0
0
0
0
0
0
1
1
0
0
0
0
0
0
0
0
0
0
0
0
1
0
0
0
0
0
0
0
0
0
0
0
0
0
0
0
0
0
1
0
0
0
0
0
0
0
0
0
0
0
0
0
0
0
0
0
1
0
0
0
0
0
0
0
0
0
0
0
0
0
0
0
0
0
0
0
0
0
0
0
0
0
0
0
0
0
0
0
0
0
0
0
0
0
0
0
0
1
0
0
0
0
0
0
0
0
0
0
0
0
0
0
0
0
0
0
0
0
0
0
0
0
0
0
0
0
0
0
0
0
0
0
0
0
0
0
0
0
0
0
0
0
0
1
0
0
0
0
0
0
0
0
0
0
0
0
0
0
0
0
0
0
0
0
0
0
0
0
0
0
0
0
0
0
0
0
0
0
0
0
0
0
0
0
0
0
0
0
0
0
0
1
0
0
0
0
0
0
0
0
0
0
1
0
0
0
0
0
0
0
0
0
0
0
0
0
0
0
1
0
0
1
0
0
0
0
0
0
0
0
0
0
0
0
0
0
0
0
0
0
0
0
0
0
0
1
0
0
0
0
0
0
0
0
0
0
0
0
0
0
0
0
0
0
0
0
0
0
0
0
0
0
0
0
0
0
0
0
0
0
0
1
0
0
0
0
0
0
0
0
0
0
0
0
0
0
0
0
0
0
0
0
0
0
0
0
0
0
0
0
0
0
0
0
0
0
0
0
0
0
0
0
0
0
0
0
0
0
0
0
0
0
0
0
0
0
0
0
0
0
0
0
0
0
0
0
0
0
0
0
0
0
0
0
0
0
0
0
1
0
0
0
0
0
0
0
0
0
0
0
0
0
0
0
0
0
0
0
0
0
0
0
0
0
0
0
0
0
0
0
0
0
0
0
0
0
0
0
1
0
0
0
0
0
0
0
0
0
0
0
0
1
1
0
0
0
0
0
0
0
0
0
0
0
0
0
0
0
0
0
0
0
0
0
0
0
0
0
0
0
0
0
0
0
0
0
0
0
0
0
0
0
0
0
0
0
0
0
0
0
0
0
0
0
0
0
0
0
0
0
0
0
0
0
0
0
0
0
0
0
0
0
0
0
0
0
0
0
0
0
0
0
0
0
0
0
0
0
0
0
0
0
0
0
0
0
0
0
0
0
0
0
0
0
1
0
1
0
0
0
0
0
0
0
1
1
1
1
0
0
0
0
0
0
0
0
0
0
0
0
0
0
0
0
0
0
0
0
0
0
0
0
0
0
0
0
1
1
0
0
0
0
0
0
0
0
0
0
0
0
0
0
0
0
0
0
1
0
0
0
0
0
0
0
1
1
0
1
1
0
0
1
0
0
0
0
0
0
0
1
0
1
0
0
0
0
0
0
0
0
0
0
0
0
0
0
0
0
0
0
0
0
0
0
0
0
0
0
0
1
1
0
0
0
1
1
0
0
0
0
1
0
0
1
0
1
0
0
0
0
0
1
0
0
0
1
0
0
0
0
0
0
0
0
0
0
0
0
0
0
0
0
0
0
0
0
0
0
0
0
0
0
0
1
0
0
0
0
0
0
1
0
0
0
0
0
0
0
0
0
0
0
0
0
0
0
0
0
0
0
0
0
0
0
0
0
0
0
0
0
1
0
1
0
0
0
0
0
0
0
1
0
0
0
0
0
0
0
0
0
0
0
1
0
0
0
0
0
0
0
0
0
1
0
0
0
0
0
0
0
1
0
0
0
0
0
0
0
1
0
0
0
0
0
0
0
0
0
0
0
0
0
0
0
0
0
0
0
1
0
1
0
0
0
0
0
1
0
0
0
0
0
0
0
0
0
0
0
0
0
0
0
0
0
0
0
0
0
0
0
0
0
1
0
1
0
0
0
0
0
0
0
0
0
1
0
0
0
0
0
1
0
0
0
0
0
0
0
0
0
0
0
0
0
0
0
1
0
0
0
0
0
0
0
0
1
0
0
0
0
0
0
0
0
0
0
0
0
0
0
0
0
0
0
0
0
0
0
0
0
0
0
0
0
0
0
1
0
0
0
0
0
0
0
0
0
0
0
0
0
0
0
0
1
0
0
0
0
0
0
0
0
1
0
0
0
0
0
0
0
0
0
1
0
0
0
0
0
1
0
0
0
0
0
0
0
0
0
0
0
0
0
0
0
0
0
0
0
1
0
0
0
0
0
0
1
0
0
0
0
0
0
0
0
1
0
0
0
0
0
0
0
0
0
0
0
0
0
0
1
0
0
1
0
0
0
1
0
0
0
0
0
0
0
0
0
0
0
0
0
0
0
0
1
0
0
0
0
0
0
0
0
0
0
1
0
1
0
0
0
0
0
0
1
0
0
0
0
0
0
0
0
0
0
0
0
0
0
0
0
0
0
0
0
0
0
0
0
0
0
0
1
1
0
0
0
0
0
0
1
0
0
0
0
0
0
0
0
0
0
0
0
0
1
0
0
0
0
0
0
0
1
0
0
0
0
0
0
0
0
0
0
0
0
0
0
0
0
0
0
0
0
0
0
0
0
0
0
0
1
0
0
0
0
0
0
0
0
0
0
1
0
0
1
0
0
0
0
0
0
0
0
0
0
0
0
0
0
0
0
0
0
0
0
0
0
0
0
0
0
0
0
0
1
0
0
0
0
0
0
0
1
0
0
0
0
0
0
0
1
0
0
0
0
1
0
0
0
0
0
0
0
0
0
0
0
1
0
1
0
0
0
1
0
				</DataArray>
				<DataArray type="Float64" Name="h" NumberOfComponents="1" Format="ascii">
1.1719363457
1.1719575328
1.1666153702
1.1707876558
1.1661132657
1.1674322423
1.1688153287
1.1732782237
1.1703009120
1.1765862508
1.1722820726
1.1680415320
1.1740038799
1.1739111112
1.1732435015
1.1773809200
1.1695205945
1.1762270731
1.1724823330
1.1726534586
1.1647078850
1.1740292747
1.1694415854
1.1642489650
1.1709949721
1.1789617689
1.1719479436
1.1606146813
1.1665729510
1.1752098028
1.1739991234
1.1686649712
1.1748434798
1.1663594448
1.1579494815
1.1635391350
1.1612580297
1.1690461469
1.1607165077
1.1635773874
1.1657244333
1.1593087513
1.1711161111
1.1660158672
1.1627526149
1.1622522636
1.1681746561
1.1564087345
1.1426166466
1.1438983990
1.1629979423
1.1629699860
1.1651421155
1.1519457708
1.1599407034
1.1707969787
1.1614584818
1.1530404138
1.1518173868
1.1527523022
1.1490021180
1.1502736400
1.1434908783
1.1621351151
1.1643997909
1.1567730067
1.1453171660
1.1448858645
1.1503148739
1.1516752784
1.1514454104
1.1591687397
1.1687653759
1.1501970123
1.1510110525
1.1589482663
1.1528726670
1.1488995924
1.1543928117
1.1595664905
1.1466385925
1.1548221930
1.1392882047
1.1463985935
1.1622901870
1.1562567683
1.1457465036
1.1479786393
1.1479354309
1.1400101133
1.1448319458
1.1581974005
1.1476208188
1.1409358511
1.1537413904
1.1556642268
1.1502256756
1.1613268912
1.1589927159
1.1455884585
1.1399925602
1.1467652563
1.1513825530
1.1545785206
1.1795817459
1.1468811731
1.1527951847
1.1416269616
1.1491057119
1.1532239395
1.1418827991
1.1408428289
1.1460504148
1.1441952320
1.1492425080
1.1416067499
1.1509683019
1.1781816786
1.1422131978
1.1473830724
1.1790912424
1.1497028870
1.1554768767
1.1805370616
1.1454471330
1.1415312300
1.1489252443
1.1813080099
1.1424338043
1.1411529423
1.1429900066
1.1521970412
1.1471008631
1.1418765829
1.1779211491
1.1430115188
1.1807856000
1.1412305259
1.1448433339
1.1770497033
1.1820757755
1.1792764679
1.1421474529
1.1745706709
1.1547866674
1.1438881854
1.1791077077
1.1394343603
1.1801882447
1.1391039112
1.1815953566
1.1412381608
1.1406478197
1.1395046642
1.1456795450
1.1404349756
1.1401512992
1.1810115552
1.1394054165
1.1837269037
1.1762195646
1.1397573260
1.1802150676
1.1826180615
1.1812366925
1.1399324077
1.1716888292
1.1785329125
1.1823750342
1.1400095449
1.1404067489
1.1835057702
1.1398012172
1.1816553526
1.1705466263
1.1395222278
1.1735612701
1.1384619501
1.1395466167
1.1829917468
1.1404084190
1.1673065286
1.1840335591
1.1540435130
1.1837633952
1.1846541747
1.1685593344
1.1393779654
1.1829911595
1.1849288117
1.1639240664
1.1395323611
1.1846934587
1.1652692322
1.1395936373
1.1389007182
1.1831559804
1.1604312600
1.1618516022
1.1384967969
1.1850210484
1.1520484673
1.1847990156
1.1390807620
1.1568635173
1.1848831235
1.1791217792
1.1822104255
1.1583098157
1.1743764830
1.1648322274
1.1844894653
1.1839667611
1.1853114897
1.1808476653
1.1612661571
1.1769436240
1.1842605097
1.1682436046
1.1847535023
1.1547617336
1.1401573312
1.1714476120
1.1424066221
1.1506827526
1.1380177591
1.1387141042
1.1459551414
1.1533460418
1.1393349469
1.1385867315
1.1411801258
1.1482223145
1.1381577058
1.1380609566
1.1439428574
1.1634408386
1.1791050023
1.1851284047
1.1741781463
1.1643080644
1.1823853727
1.1850409543
1.1733474492
1.1818463570
1.1784491015
1.1848591767
1.1669504278
1.1809482765
1.1844272044
1.1768385413
1.1678446567
1.1841206262
1.1598236098
1.1606408479
1.1854891179
1.1760828555
1.1803656802
1.1853121881
1.1413425714
1.1711591021
1.1500025069
1.1453679094
1.1417975272
1.1488115285
1.1378512603
1.1373864340
1.1540522958
1.1378694402
1.1394719851
1.1380491834
1.1702792649
1.1393266554
1.1443635296
1.1426787433
1.1526666952
1.1475671711
1.1434158519
1.1405075355
1.1513344223
1.1386326676
1.1375243606
1.1377606740
1.1374217533
1.1386569352
1.1402288481
1.1464720411
1.1790840568
1.1850258395
1.1852031410
1.1783977099
1.1628864938
1.1825392939
1.1820348729
1.1739559314
1.1637502062
1.1731130336
1.1810191519
1.1845920682
1.1854892372
1.1856570795
1.1804258797
1.1665017249
1.1600177393
1.1591936680
1.1767233114
1.1673890811
1.1759473886
1.1842943540
1.1493515795
1.1438041453
1.1447429269
1.1372014201
1.1533668054
1.1373733647
1.1406698164
1.1708217278
1.1386436890
1.1367146131
1.1699400651
1.1411943455
1.1481268608
1.1388053251
1.1371915041
1.1469198767
1.1458436877
1.1428250063
1.1371009598
1.1420751981
1.1395420416
1.1379585188
1.1367496409
1.1368499762
1.1520321663
1.1398638907
1.1506355555
1.1379819741
1.1783509222
1.1346273464
1.1737211833
1.1632166484
1.1728538565
1.1851988509
1.1623297581
1.1826766943
1.1790667224
1.1821724829
1.1853654915
1.1348360498
1.1460672592
1.1594521486
1.1383428003
1.1804741045
1.1844839473
1.1340600597
1.1766044540
1.1434414786
1.1669304150
1.1758005091
1.1364451986
1.1361285972
1.1336714824
1.1856566182
1.1660251211
1.1585969520
1.1810873653
1.1517737691
1.1477851788
1.1416213669
1.1858172092
1.1394607639
1.1348231724
1.1847632234
1.1360203248
1.1400355120
1.1405956601
1.1365080518
1.1862042219
1.1367011172
1.1487650954
1.1527486130
1.1379695636
1.1365023919
1.1704685086
1.1381603271
1.1695674500
1.1474675918
1.1431965825
1.1441368677
1.1757474649
1.1361472832
1.1514863001
1.1414702830
1.1576598510
1.1360625380
1.1392435961
1.1867102862
1.1834583448
1.1814138021
1.1649862562
1.1463153934
1.1372810062
1.1687124419
1.1388785963
1.1612719977
1.1364105273
1.1373206203
1.1499830583
1.1452032879
1.1723401321
1.1422282013
1.1487564369
1.1376573207
1.1458974514
1.1783133705
1.1344881425
1.1359808748
1.1725942955
1.1371070144
1.1463998955
1.1517996798
1.1551038237
1.1823029713
1.1353743076
1.1336851193
1.1403234421
1.1350057614
1.1853755914
1.1356056788
1.1618273032
1.1436890594
1.1333277951
1.1379064476
1.1342511074
1.1412976813
1.1398390589
1.1338966982
1.1367051196
1.1351411788
1.1519450855
1.1458812018
1.1390439970
1.1805298134
1.1356080802
1.1478493705
1.1756554652
1.1440883899
1.1433468370
1.1388576664
1.1351559518
1.1375731618
1.1350576793
1.1858163172
1.1490081768
1.1655727525
1.1551021710
1.1324735497
1.1337186443
1.1411106553
1.1328921439
1.1846733480
1.1580879907
1.1783077789
1.1357837131
1.1692006093
1.1394266290
1.1420649979
1.1468756560
1.1625815924
1.1824587611
1.1358191276
1.1723720630
1.1373180125
1.1652001406
1.1522500906
1.1426007757
1.1320808258
1.1736500320
1.1855545130
1.1862997798
1.1858306355
1.1577207867
1.1806175419
1.1357071904
1.1332661703
1.1328391975
1.1366157448
1.1849146862
1.1408750315
1.1841026741
1.1460805525
1.1494237209
1.1315581247
1.1848704653
1.1867097832
1.1788109678
1.1755415995
1.1319844521
1.1382472142
1.1864578529
1.1371492304
1.1344947372
1.1770143638
1.1814134133
1.1649852483
1.1688871853
1.1446021855
1.1859675940
1.1541604743
1.1435016380
1.1849151751
1.1614366437
1.1389884931
1.1723722444
1.1521174575
1.1855532991
1.1373406854
1.1487522477
1.1857123708
1.1733562511
1.1614354417
1.1433335714
1.1459635829
1.1340256645
1.1791337518
1.1347813941
1.1880617906
1.1410405192
1.1554294176
1.1624547509
1.1362298613
1.1783078777
1.1391925452
1.1830202038
1.1824577850
1.1655050388
1.1848690623
1.1755419074
1.1859665325
1.1554285768
1.1577190418
1.1692873746
1.1825538888
1.1860213444
1.1765012957
1.1764628790
1.1871422716
1.1651994895
1.1729867278
1.1848799037
1.1327424929
1.1797251755
1.1813202999
1.1580428624
1.1851485178
1.1545022475
1.1587204313
1.1865618741
1.1343236578
1.1333113973
1.1662257792
1.1873837405
1.1337171282
1.1806171438
1.1617311318
1.1366999920
1.1688870068
1.1420619287
1.1411104105
1.1350605660
1.1699039539
1.1434217937
1.1357129333
1.1410586244
1.1463957538
1.1859238670
1.1519168375
1.1490235779
1.1389871955
1.1660823075
1.1765162926
1.1388539605
1.1371481723
1.1892160000
1.1461594037
1.1833024551
1.1351408978
1.1376523827
1.1440847576
1.1904539195
1.1350075418
1.1670876275
1.1799993271
1.1618790745
1.1881682650
1.1490041836
1.1623227621
1.1861746007
1.1317466038
1.1700413966
1.1589309750
1.1697900534
1.1323592941
1.1792888707
1.1403204305
1.1838916965
1.1736685662
1.1330157972
1.1359762731
1.1929464100
1.1773765372
1.1845608644
1.1339258190
1.1920627719
1.1490230834
1.1815571559
1.1411518540
1.1830194814
1.1699035431
1.1624535533
1.1791336276
1.1327605931
1.1511572597
1.1854072316
1.1857114329
1.1733122058
1.1952393746
1.1325407212
1.1851474885
1.1878768181
1.1736683478
1.1930712947
1.1847769949
1.1587187378
1.1733560798
1.1662250255
1.1813199245
1.1348876169
1.1317690251
1.1371339688
1.1435340479
1.1860204623
1.1776150879
1.1697841561
1.1648843885
1.1317406474
1.1351021832
1.1580424741
1.1808125534
1.1323595567
1.1984506594
1.1755570872
1.1859771205
1.1829917301
1.2009533416
1.1686113111
1.1611525441
1.1764628195
1.1364556344
1.1785280310
1.1862526355
1.1844322321
1.1390170443
1.1335809047
1.1312640653
1.1382757191
1.1971661658
1.1722113527
1.1853999615
1.1810246055
1.1313455875
1.1310130517
1.1655044777
1.1813420294
1.1695963312
1.1906323439
1.1348535156
1.1922519438
1.1892900891
1.1305746685
1.1312785721
1.1740164686
1.1779528138
1.1340395486
1.1817685334
1.1844495117
1.1955064936
1.1323481811
1.1308939378
1.1314776113
1.1847287923
1.1872155031
1.1967348592
1.1939101916
1.1915743681
1.1328539163
1.1318707543
1.1355109358
1.1340746281
1.2014335974
1.1311491810
1.1304352481
1.1957663911
1.1317700571
1.1330642738
1.1929456850
1.1303960923
1.1797246527
1.1310368231
1.1876263858
1.1861693724
1.1305500607
1.1920620900
1.1307692947
1.1307604594
1.1873831448
1.1310202848
1.1886340776
1.1888884756
1.1316788397
1.1312175355
1.1869937466
1.1700086044
1.1691581040
1.1691769364
1.1700319264
1.1695248458
1.1680353925
1.1722725017
1.1719759293
1.1670617693
1.1674218932
1.1661249229
1.1670788267
1.1703141904
1.1732289160
1.1688035494
1.1751549928
1.1719885826
1.1695338406
1.1748505716
1.1762190891
1.1707961965
1.1666230424
1.1724589394
1.1752029383
1.1766561144
1.1679321183
1.1732906435
1.1789602242
1.1709886316
1.1765934043
1.1750461644
1.1740209351
1.1652387395
1.1764168258
1.1713828968
1.1751633642
1.1739934098
1.1748642750
1.1663569309
1.1748260665
1.1686335971
1.1737782829
1.1635705710
1.1624001022
1.1695240621
1.1773888829
1.1710872461
1.1606864765
1.1679366507
1.1766637727
1.1657037330
1.1739184046
1.1726577517
1.1652446709
1.1694752674
1.1557495957
1.1740477877
1.1618204941
1.1750624991
1.1647116729
1.1714125097
1.1722439813
1.1583569107
1.1564061246
1.1764269384
1.1627422198
1.1629953040
1.1681360958
1.1606432528
1.1642582533
1.1665997541
1.1614319859
1.1642611965
1.1719742777
1.1597734583
1.1775840669
1.1624274742
1.1585980317
1.1578089757
1.1737973498
1.1651095154
1.1557516836
1.1427721918
1.1446922743
1.1722713227
1.1618255293
1.1604983375
1.1583747400
1.1635540157
1.1643622245
1.1690811788
1.1568761308
1.1579528624
1.1434991751
1.1448930014
1.1578130057
1.1612613187
1.1621195059
1.1586057630
1.1541058750
1.1532626871
1.1660519974
1.1501998367
1.1532919423
1.1591619855
1.1687353551
1.1516254630
1.1654705753
1.1653426626
1.1597783327
1.1490566553
1.1578117731
1.1593224809
1.1528718227
1.1514454810
1.1497940444
1.1510122767
1.1642924593
1.1677761970
1.1503142745
1.1595123459
1.1775905545
1.1516734523
1.1605055801
1.1568796557
1.1572491598
1.1578270636
1.1462252380
1.1558440243
1.1440924438
1.1426075786
1.1629923032
1.1446857187
1.1622829052
1.1548134731
1.1464046555
1.1557817150
1.1427622465
1.1438899217
1.1490029024
1.1502755660
1.1678104498
1.1478619401
1.1497898899
1.1518173921
1.1539754370
1.1532924486
1.1609699090
1.1675512445
1.1541071047
1.1595150877
1.1565394188
1.1599505039
1.1503693977
1.1516264899
1.1490583553
1.1708227695
1.1542924034
1.1506022762
1.1654966577
1.1519457618
1.1532630142
1.1527517937
1.1581823785
1.1530416716
1.1653765038
1.1476214576
1.1462198756
1.1545762315
1.1589681728
1.1557861540
1.1642596009
1.1558461611
1.1467641124
1.1454780164
1.1467219134
1.1479231958
1.1567903267
1.1399989469
1.1453101408
1.1560187778
1.1613044298
1.1477951156
1.1556496038
1.1551945378
1.1440831519
1.1455891517
1.1468864289
1.1572676597
1.1393499643
1.1542986407
1.1491071907
1.1408522304
1.1478625036
1.1506008771
1.1460523957
1.1565425234
1.1589598301
1.1420572934
1.1539760607
1.1488988008
1.1675774615
1.1446190793
1.1609823587
1.1418931701
1.1532147079
1.1503693527
1.1467209271
1.1393468419
1.1524233419
1.1477966025
1.1562682676
1.1497008177
1.1482442743
1.1560212266
1.1792717660
1.1551967188
1.1479211915
1.1623084719
1.1595865554
1.1457465312
1.1392838335
1.1466390446
1.1509649313
1.1543943824
1.1454704134
1.1790891158
1.1479754509
1.1642795840
1.1446174724
1.1521905903
1.1431086031
1.1799484501
1.1415381983
1.1464070977
1.1440105209
1.1479316952
1.1537494399
1.1409252204
1.1412411706
1.1400022896
1.1448292092
1.1423055530
1.1529996160
1.1454521094
1.1489278397
1.1420457134
1.1411541707
1.1513861467
1.1406207691
1.1433712468
1.1524260620
1.1792734375
1.1482386363
1.1433264770
1.1779178217
1.1430140926
1.1471081236
1.1795833677
1.1502257837
1.1547785243
1.1443395400
1.1792740147
1.1457025973
1.1799484727
1.1412390350
1.1441896048
1.1416185992
1.1796855501
1.1530017226
1.1440071212
1.1492415287
1.1801868811
1.1430993958
1.1421481304
1.1813375816
1.1416057729
1.1464040793
1.1438894790
1.1423004193
1.1527995980
1.1793585799
1.1575256777
1.1448353874
1.1408588921
1.1406175469
1.1433192640
1.1819623306
1.1416851274
1.1406548980
1.1447564759
1.1473764456
1.1433608741
1.1412384104
1.1781849751
1.1439416380
1.1422095143
1.1768363771
1.1815992076
1.1406476966
1.1456788386
1.1796859076
1.1813391763
1.1785308625
1.1812366662
1.1456966875
1.1396535297
1.1793604667
1.1818733142
1.1389772971
1.1463360270
1.1443325071
1.1805390946
1.1424336072
1.1762105109
1.1802659146
1.1554832334
1.1429884465
1.1767896549
1.1802171278
1.1430848209
1.1397569513
1.1813090824
1.1394050258
1.1447563705
1.1807841533
1.1418762772
1.1403230399
1.1469741645
1.1406500246
1.1410112249
1.1412303963
1.1398010271
1.1756271800
1.1813691158
1.1448435729
1.1768404588
1.1448272450
1.1819587776
1.1408587819
1.1575331428
1.1439411067
1.1400092602
1.1432093063
1.1416850909
1.1404068550
1.1816568040
1.1391045191
1.1840331119
1.1488352153
1.1802670540
1.1818738293
1.1398833210
1.1398927029
1.1395095327
1.1745865169
1.1394347246
1.1791089342
1.1829923590
1.1389781505
1.1767934869
1.1463316187
1.1838478800
1.1820757938
1.1404088939
1.1430845780
1.1735462580
1.1439094266
1.1770582193
1.1396537495
1.1831321649
1.1829899682
1.1404346543
1.1401513752
1.1813661584
1.1494896954
1.1403233455
1.1782775727
1.1756306669
1.1469694889
1.1837618442
1.1410107312
1.1395043074
1.1810104702
1.1432090861
1.1685394364
1.1513798213
1.1395934977
1.1717093253
1.1831326411
1.1398814080
1.1389009848
1.1838477213
1.1395097801
1.1439094351
1.1393498105
1.1839786865
1.1398929463
1.1488367387
1.1827077793
1.1395323316
1.1424139554
1.1826176774
1.1399313954
1.1652542613
1.1386408357
1.1837275884
1.1520450603
1.1392100442
1.1835071449
1.1847975797
1.1705641404
1.1390801238
1.1494908999
1.1823766332
1.1850194270
1.1782801746
1.1618422422
1.1390771300
1.1395467082
1.1827562009
1.1839797211
1.1827085312
1.1844881764
1.1386419208
1.1393500656
1.1841093013
1.1387744640
1.1673217396
1.1424136567
1.1395221833
1.1513840124
1.1849664190
1.1850150893
1.1384628418
1.1839678134
1.1583040415
1.1639342616
1.1385852812
1.1392104171
1.1849304321
1.1390777907
1.1389063336
1.1387344790
1.1540479550
1.1846556173
1.1393783335
1.1547592647
1.1848595491
1.1784471703
1.1829204937
1.1818503540
1.1604368554
1.1850166300
1.1576329944
1.1845743613
1.1733374469
1.1833566918
1.1827545221
1.1634363389
1.1846946162
1.1850710089
1.1387734064
1.1831540714
1.1852204594
1.1803676944
1.1830983935
1.1598222798
1.1760760618
1.1841224952
1.1669426103
1.1849679176
1.1851272253
1.1841089365
1.1383667916
1.1561922218
1.1568657113
1.1389072934
1.1402412216
1.1702690447
1.1387355942
1.1426894128
1.1513326431
1.1377583892
1.1386387894
1.1382918881
1.1464737309
1.1540532969
1.1393364419
1.1384984268
1.1413552787
1.1488097536
1.1378664650
1.1381447021
1.1378508507
1.1443702922
1.1648399174
1.1783963236
1.1835347493
1.1847541824
1.1731072653
1.1628853478
1.1833537623
1.1576341132
1.1829177604
1.1847033716
1.1569558928
1.1820384302
1.1850267821
1.1845752143
1.1743877221
1.1822068762
1.1791231667
1.1848831939
1.1682546750
1.1804275487
1.1842967022
1.1850723570
1.1759430282
1.1664982998
1.1842592156
1.1612706383
1.1591949363
1.1833036181
1.1853911676
1.1769504743
1.1830949368
1.1808455771
1.1852214270
1.1411684823
1.1699348233
1.1555391143
1.1506367681
1.1458440070
1.1420835072
1.1482240495
1.1381422600
1.1380622059
1.1370987909
1.1533462187
1.1381596114
1.1376401793
1.1395545698
1.1379654618
1.1714604133
1.1383686041
1.1393262575
1.1439358712
1.1423967484
1.1533706408
1.1481263635
1.1438079034
1.1406815302
1.1506854516
1.1387089071
1.1382904584
1.1371976762
1.1561902571
1.1380202837
1.1371915795
1.1386542715
1.1374797672
1.1401461141
1.1459523160
1.1783501228
1.1837085359
1.1850404395
1.1847036291
1.1852001632
1.1791059537
1.1643116157
1.1563141077
1.1821751975
1.1569542918
1.1823817938
1.1728510242
1.1623302279
1.1741849551
1.1835315123
1.1804753045
1.1844863218
1.1853916262
1.1855594670
1.1809461652
1.1678502789
1.1585990809
1.1834933051
1.1606419344
1.1833000296
1.1757981424
1.1660241186
1.1768430700
1.1844253077
1.1499870543
1.1434105660
1.1452045514
1.1375273923
1.1526633679
1.1372878306
1.1404960010
1.1695652183
1.1386471005
1.1374766610
1.1369661140
1.1364084751
1.1549492372
1.1711661398
1.1414755796
1.1475680253
1.1388892335
1.1374223066
1.1474697940
1.1453667227
1.1431988904
1.1373891793
1.1555351691
1.1368000960
1.1417884996
1.1394601117
1.1380427729
1.1365080952
1.1364985407
1.1527536110
1.1400442648
1.1500021733
1.1379793847
1.1376375037
1.1344886369
1.1436923193
1.1557620646
1.1371104533
1.1790844945
1.1837054857
1.1343263443
1.1343431289
1.1725932042
1.1451336441
1.1618282219
1.1739594640
1.1376214389
1.1353773032
1.1339602660
1.1852022055
1.1637512558
1.1563112885
1.1823047232
1.1783130020
1.1825362182
1.1487592058
1.1507655407
1.1398421811
1.1853769851
1.1407873766
1.1355189664
1.1838811509
1.1349605778
1.1453902239
1.1580897716
1.1381049599
1.1810173984
1.1845899928
1.1343483383
1.1338778117
1.1756544164
1.1428057620
1.1655728556
1.1767258169
1.1366303352
1.1360775382
1.1340247137
1.1855593932
1.1673915506
1.1600169247
1.1836688880
1.1805305423
1.1834902293
1.1508338961
1.1486861558
1.1411774157
1.1857196763
1.1390641424
1.1348243037
1.1846753270
1.1734072160
1.1357051347
1.1544742020
1.1398542698
1.1614962408
1.1362858171
1.1408785753
1.1367495710
1.1863003231
1.1866065352
1.1819299000
1.1366216109
1.1841031624
1.1689592761
1.1494286739
1.1367970123
1.1520269044
1.1661175895
1.1379724589
1.1587228541
1.1368537127
1.1691999889
1.1382547781
1.1708251199
1.1469181777
1.1428215358
1.1760714988
1.1446051768
1.1770148527
1.1357801679
1.1522543863
1.1411876093
1.1589318779
1.1358190489
1.1394323256
1.1369631143
1.1864369544
1.1866104612
1.1843245571
1.1361230761
1.1824712351
1.1663157375
1.1468797446
1.1373668884
1.1549453871
1.1700420878
1.1387945613
1.1625824759
1.1367168819
1.1373257897
1.1493479981
1.1447414688
1.1736506261
1.1426033286
1.1479506227
1.1345752765
1.1375446287
1.1356134349
1.1487537083
1.1451312823
1.1433354009
1.1403573689
1.1790668465
1.1347026595
1.1369062214
1.1360445200
1.1347030036
1.1509763676
1.1737226911
1.1369648102
1.1457928715
1.1507637937
1.1431355484
1.1540294251
1.1450330506
1.1826744870
1.1354114673
1.1339607237
1.1400231025
1.1343255857
1.1369683589
1.1362321276
1.1353195907
1.1853643647
1.1510755377
1.1355162928
1.1632163731
1.1517715652
1.1518013463
1.1327433660
1.1333124571
1.1431318561
1.1391946416
1.1330895819
1.1376186766
1.1343417206
1.1332353462
1.1838787339
1.1557593441
1.1407846098
1.1395005581
1.1336847742
1.1460643891
1.1337904934
1.1366824197
1.1356080771
1.1353758534
1.1508356165
1.1477829359
1.1450235614
1.1384847831
1.1810861659
1.1343272174
1.1359263862
1.1354639545
1.1488938452
1.1766055947
1.1361251497
1.1435891007
1.1540650180
1.1540664471
1.1425367567
1.1836666786
1.1348342957
1.1340594204
1.1386521853
1.1350135624
1.1372174067
1.1354308977
1.1857191540
1.1482865925
1.1413000594
1.1364423786
1.1669310977
1.1540276709
1.1327612427
1.1337635163
1.1416184042
1.1405133063
1.1330413084
1.1390610832
1.1348220026
1.1328051375
1.1847613307
1.1594506370
1.1428027781
1.1383397056
1.1790726639
1.1361510199
1.1339272634
1.1323606589
1.1361202937
1.1704698079
1.1858301426
1.1392368667
1.1824708035
1.1434227587
1.1416673878
1.1463112701
1.1612708774
1.1317479593
1.1840605195
1.1866059864
1.1828256871
1.1360624406
1.1792172972
1.1735069607
1.1323609937
1.1373127928
1.1855663086
1.1382876631
1.1335426495
1.1734066611
1.1834579273
1.1623782686
1.1623771556
1.1665241769
1.1514813276
1.1422250806
1.1322143375
1.1723394975
1.1652207495
1.1855327779
1.1862036202
1.1519200793
1.1451878120
1.1862864436
1.1856054230
1.1590028380
1.1867768012
1.1372084388
1.1811770871
1.1360220669
1.1330172611
1.1327650985
1.1366954819
1.1849721626
1.1405910720
1.1843241240
1.1451086195
1.1487599950
1.1652199446
1.1317420481
1.1849441843
1.1866099078
1.1838587371
1.1362832630
1.1799997639
1.1765055933
1.1319437049
1.1381520908
1.1862859173
1.1365551799
1.1342117333
1.1757470022
1.1819295595
1.1663149269
1.1766969860
1.1701457681
1.1544716768
1.1441337650
1.1319771328
1.1760709547
1.1858727139
1.1864363649
1.1837210363
1.1553553251
1.1426049580
1.1857668469
1.1855668259
1.1627662305
1.1383475602
1.1628506054
1.1840588936
1.1735073552
1.1509754501
1.1855316728
1.1369042034
1.1519439228
1.1553528898
1.1733742873
1.1477644584
1.1857126441
1.1857448193
1.1802847403
1.1334521729
1.1722312966
1.1426092431
1.1871999541
1.1627652971
1.1703670810
1.1426072479
1.1411736453
1.1450316599
1.1831658722
1.1354145358
1.1343501351
1.1521181594
1.1508316526
1.1334511113
1.1774511179
1.1783679276
1.1345733130
1.1360743718
1.1556056643
1.1874987082
1.1479533989
1.1842737738
1.1403556071
1.1394582787
1.1542146426
1.1581120181
1.1342523410
1.1551335604
1.1887933538
1.1346285177
1.1332439412
1.1486840648
1.1359871061
1.1325518130
1.1612036311
1.1864083286
1.1359847198
1.1342767094
1.1790726413
1.1657345673
1.1387186467
1.1826736519
1.1828243577
1.1348204582
1.1669060380
1.1849427076
1.1765059524
1.1543879017
1.1858719123
1.1384828459
1.1542135910
1.1410420756
1.1590011035
1.1707244141
1.1458795524
1.1839472047
1.1861081810
1.1779532881
1.1754971722
1.1875788981
1.1665238916
1.1744395012
1.1458997203
1.1411087487
1.1478481915
1.1861699415
1.1336717694
1.1347832093
1.1330888780
1.1811608853
1.1807697125
1.1356060363
1.1593076969
1.1878178465
1.1850986499
1.1425351565
1.1325528470
1.1543885471
1.1556750116
1.1575294400
1.1876269968
1.1337887073
1.1328909685
1.1649585528
1.1880984037
1.1351537797
1.1332338378
1.1811764057
1.1630740172
1.1375709786
1.1840984117
1.1838573769
1.1366768866
1.1701459281