<VTKFile type="UnstructuredGrid" version="0.1">
	<UnstructuredGrid>
		<Piece NumberOfPoints="1862" NumberOfCells="3498">
			<CellData>
				<DataArray type="Int32" Name="type" NumberOfComponents="1" Format="ascii">
0
0
0
0
0
0
0
0
0
0
0
0
0
0
0
0
1
0
0
1
0
0
0
0
0
0
0
0
0
0
0
0
0
1
0
0
0
0
0
0
0
0
0
0
0
0
0
0
0
0
1
0
0
0
0
0
0
0
0
0
0
1
0
0
0
0
0
0
0
0
0
0
0
0
0
0
0
0
0
0
0
0
0
0
0
0
0
0
0
0
0
0
0
0
0
0
0
0
0
0
0
0
0
0
0
0
0
0
0
0
0
0
0
0
0
0
0
0
0
0
0
0
0
1
0
0
0
0
0
0
0
0
0
0
0
0
0
0
0
0
0
0
0
0
0
0
0
0
0
0
0
1
0
1
1
0
0
0
0
0
0
0
0
0
0
0
0
0
1
0
1
0
0
0
0
1
0
0
0
0
0
0
0
0
1
1
0
0
0
0
0
1
0
0
0
0
0
0
0
0
1
0
0
0
0
0
0
0
0
0
0
0
0
0
0
0
0
0
0
0
0
0
0
0
0
0
0
0
0
0
0
0
0
1
0
0
0
0
0
0
0
0
0
0
0
0
0
0
0
0
0
0
0
0
0
0
0
0
0
0
0
0
0
0
0
0
0
0
0
0
0
0
0
0
0
0
0
0
0
0
0
1
0
0
0
0
0
0
0
0
0
0
0
0
0
0
0
0
0
0
0
0
0
0
0
0
0
0
0
0
0
0
0
0
0
0
0
0
0
0
0
0
0
0
0
0
0
0
0
0
0
0
1
0
0
0
0
0
0
0
0
0
0
0
0
0
0
0
0
0
0
0
0
0
0
0
0
0
0
0
0
0
0
0
0
0
0
0
0
0
0
0
0
0
0
0
0
0
0
0
0
0
0
0
0
0
0
0
0
0
1
0
0
0
0
0
0
0
0
0
0
0
0
0
0
0
0
0
0
0
0
0
0
0
0
0
0
0
0
0
0
0
0
0
0
0
0
0
0
0
0
0
0
0
0
0
0
0
0
0
0
0
0
0
0
0
0
0
0
0
0
0
0
0
0
0
0
0
0
0
0
0
0
0
0
0
0
0
0
0
0
0
0
0
0
0
0
0
0
0
0
0
0
0
0
0
0
0
0
0
0
0
0
0
0
0
0
0
0
0
0
0
0
0
0
0
0
0
0
0
0
0
0
0
0
0
0
0
0
0
0
0
0
1
0
0
0
0
0
0
0
0
0
0
0
0
0
0
0
0
0
0
0
1
0
0
0
0
0
0
0
0
0
0
0
0
0
0
0
0
0
0
0
0
0
0
0
0
0
0
0
0
0
0
0
0
0
0
0
0
0
0
0
0
0
0
0
0
0
0
0
0
0
0
0
0
0
1
0
0
0
0
0
0
0
0
0
0
0
0
0
0
0
0
0
0
0
0
0
0
0
1
0
0
0
0
0
0
0
0
0
0
0
0
0
0
0
0
0
0
0
1
0
0
0
1
0
0
0
0
0
0
0
0
0
0
0
0
0
0
0
0
0
0
0
0
0
0
0
0
0
1
0
0
0
0
0
0
0
1
0
0
0
0
0
0
0
0
0
0
0
0
0
0
0
0
0
0
0
0
0
0
0
0
0
0
1
0
0
0
0
0
0
0
1
0
0
0
0
0
0
1
0
0
0
0
0
0
0
0
0
0
0
0
0
0
0
0
0
0
0
0
0
0
0
0
0
0
0
0
0
0
0
0
0
0
0
0
0
0
1
0
0
0
0
0
1
0
0
0
0
0
0
0
1
0
0
0
0
0
0
0
0
0
0
0
0
0
1
0
0
0
0
0
0
0
0
0
0
0
0
0
0
0
0
0
0
0
0
0
0
0
0
0
0
0
0
0
0
0
0
0
0
0
0
0
0
0
0
0
0
0
0
0
0
0
0
0
0
0
0
0
1
0
0
0
0
0
0
0
0
0
0
0
0
0
0
0
0
0
0
0
1
0
0
0
0
0
0
0
0
0
1
0
0
0
0
0
0
0
0
0
0
0
0
0
0
0
0
0
0
0
0
0
0
0
0
0
0
0
0
0
1
0
1
0
0
0
0
0
0
0
0
0
0
0
0
0
0
0
0
0
0
0
0
0
0
0
0
0
0
0
1
0
0
0
1
0
0
0
0
0
0
0
0
0
0
0
0
0
0
0
0
0
0
0
0
0
0
0
0
0
0
0
0
1
0
0
0
0
0
0
0
0
0
0
0
0
0
0
0
0
0
0
0
0
0
0
0
0
0
1
0
0
0
0
0
0
0
0
0
0
0
0
0
0
0
0
0
0
0
0
0
0
0
1
0
0
0
0
0
0
1
0
0
0
0
0
0
0
0
0
0
0
1
0
0
0
0
0
0
0
0
0
0
0
0
0
0
0
0
0
0
0
0
1
0
0
0
0
0
0
0
0
0
0
0
1
0
0
0
0
0
0
0
0
0
0
0
0
0
0
0
0
0
0
0
0
0
1
0
0
0
0
0
0
0
0
0
1
1
0
1
0
1
0
0
0
0
0
0
0
0
0
0
0
1
0
0
0
0
0
1
1
0
0
0
0
0
0
1
0
0
0
0
0
1
1
1
0
0
0
0
0
0
0
0
0
0
0
0
1
1
0
0
1
0
0
0
0
0
1
0
0
0
1
0
1
0
0
0
0
0
0
0
1
0
0
0
0
0
0
0
1
0
0
1
0
0
0
0
0
0
0
0
0
0
0
0
0
0
0
1
0
0
0
0
0
0
0
0
0
0
0
0
0
0
0
0
0
0
0
0
0
0
0
0
0
0
0
0
0
0
0
0
0
0
0
0
1
0
0
0
0
0
0
1
0
0
0
1
0
0
0
0
0
0
0
0
0
0
0
1
0
0
0
0
0
0
0
0
0
0
0
0
0
0
0
0
0
0
0
0
0
0
0
0
0
0
0
0
0
0
0
0
0
0
0
0
0
0
0
0
1
1
0
0
0
0
0
0
0
0
0
0
0
0
0
1
0
0
0
0
0
0
0
0
0
0
0
0
0
0
0
0
0
0
0
0
0
0
0
0
0
0
0
0
0
0
0
0
0
0
0
0
0
0
0
0
0
0
0
0
0
0
0
0
0
0
0
0
0
0
0
0
0
0
0
0
0
0
0
0
0
0
0
0
0
0
0
0
1
1
0
0
0
0
0
0
0
0
1
0
0
0
0
0
0
0
0
0
0
0
0
0
0
0
0
0
0
0
0
0
0
0
1
0
0
0
0
0
0
0
0
0
0
0
0
0
0
0
0
1
0
0
0
0
0
0
0
0
0
0
0
0
0
0
0
0
0
0
0
0
0
0
0
0
0
0
0
0
0
0
0
0
0
0
0
0
0
0
0
0
0
0
0
0
0
0
0
0
0
0
0
0
0
0
0
0
0
0
0
0
0
0
0
0
0
0
0
0
0
0
0
0
0
0
0
0
0
0
0
0
0
0
0
0
0
0
0
0
0
0
1
1
0
0
0
0
0
1
0
0
0
0
0
0
0
0
0
0
0
0
1
0
0
0
0
0
0
0
0
0
0
0
0
0
0
0
0
0
0
0
0
0
0
0
0
0
0
0
0
0
0
0
0
0
0
0
0
0
0
0
0
0
0
0
0
0
0
0
0
0
0
0
0
0
1
0
1
0
0
0
0
0
0
0
0
0
0
0
0
0
0
0
0
0
0
1
0
0
0
0
0
0
0
0
0
0
0
0
0
0
0
0
0
0
0
0
0
0
0
0
0
0
0
0
0
0
0
0
0
0
0
0
0
0
0
0
0
0
0
0
0
0
0
0
0
0
0
0
0
0
0
0
0
0
0
0
0
0
0
0
0
0
0
0
0
0
1
0
0
0
0
0
0
0
0
0
0
1
0
0
0
0
0
0
0
0
0
0
0
0
0
0
0
0
0
0
0
0
0
0
0
0
0
0
0
0
0
0
0
0
0
0
0
0
0
1
0
0
0
0
0
0
0
0
0
0
0
0
0
0
0
0
0
0
0
0
0
0
0
0
0
0
0
0
0
0
0
0
0
0
0
0
0
0
0
0
0
0
0
0
0
0
0
0
0
0
0
0
0
0
0
0
0
0
0
0
0
0
0
0
0
0
0
0
0
0
0
0
0
0
0
0
0
0
0
0
0
1
0
0
0
0
0
0
0
0
0
0
0
0
0
0
0
0
0
0
0
0
0
0
0
0
0
0
0
0
0
0
0
0
0
0
0
0
0
0
0
0
0
0
0
0
0
0
0
0
0
0
0
0
0
0
0
0
0
0
0
0
0
0
0
0
0
0
0
0
0
0
0
0
0
0
0
0
0
0
0
0
0
0
0
0
0
0
0
0
0
0
0
0
0
0
0
0
0
0
0
0
0
0
0
0
0
0
0
0
0
0
0
0
0
0
0
0
0
0
0
0
0
0
0
1
0
0
0
0
0
0
0
0
0
0
0
0
0
0
0
0
0
0
0
0
0
0
0
0
0
0
0
0
0
0
0
0
0
0
0
0
0
0
0
0
0
0
0
0
0
0
0
0
0
0
0
0
0
0
0
0
0
0
0
0
0
0
0
0
0
0
0
0
0
0
0
0
0
0
0
0
0
0
0
0
0
1
0
0
0
0
0
0
0
1
0
0
0
0
0
0
0
0
0
0
0
0
0
0
0
0
0
0
0
0
0
0
0
0
0
0
0
0
0
0
0
0
0
0
0
0
0
1
0
0
0
0
0
0
0
0
0
0
0
0
0
0
0
0
0
0
0
0
0
1
0
0
0
0
0
0
0
0
0
0
0
0
1
1
0
0
0
0
0
0
0
0
0
0
0
0
0
0
0
1
1
0
1
0
0
0
0
0
0
0
0
0
1
0
0
0
0
0
0
1
0
0
0
0
0
0
0
0
0
0
1
0
0
0
0
1
0
1
0
0
0
0
0
0
0
1
0
0
0
1
0
0
0
1
0
1
1
0
0
1
1
0
0
0
1
0
0
0
1
0
0
0
0
0
0
0
0
0
1
0
0
0
0
0
0
1
0
0
0
0
0
0
0
0
0
0
0
0
0
0
0
0
0
0
0
0
0
0
0
0
0
0
0
1
0
0
1
0
0
0
0
0
0
0
0
0
0
0
0
0
0
0
0
0
0
1
0
0
1
0
0
0
0
0
0
0
0
0
0
0
1
0
0
1
0
0
0
0
0
0
0
0
0
0
0
1
1
0
0
0
0
0
0
0
0
0
0
0
0
1
0
0
0
0
0
0
0
0
0
0
0
0
0
0
0
0
0
1
0
0
0
0
0
0
0
0
0
0
0
0
0
0
0
0
0
1
0
0
0
0
0
0
0
0
0
0
0
0
0
0
0
0
0
0
0
0
0
0
0
0
0
0
0
0
0
0
0
0
0
0
0
0
0
0
0
0
1
0
0
0
0
0
0
0
0
0
0
0
0
0
0
0
0
0
0
0
0
0
0
0
0
0
0
0
0
0
0
0
0
0
0
0
0
0
0
0
0
0
0
0
0
0
1
0
0
0
0
0
0
0
0
0
0
0
0
0
0
0
0
0
0
0
0
0
0
0
0
0
0
0
0
0
0
0
0
0
0
0
0
0
0
0
0
0
0
0
0
0
0
0
1
0
0
0
0
0
0
0
0
0
0
1
0
0
0
0
0
0
0
0
0
0
0
0
0
0
0
1
0
0
1
0
0
0
0
0
0
0
0
0
0
0
0
0
0
0
0
0
0
0
0
0
0
0
1
0
0
0
0
0
0
0
0
0
0
0
0
0
0
0
0
0
0
0
0
0
0
0
0
0
0
0
0
0
0
0
0
0
0
0
1
0
0
0
0
0
0
0
0
0
0
0
0
0
0
0
0
0
0
0
0
0
0
0
0
0
0
0
0
0
0
0
0
0
0
0
0
0
0
0
0
0
0
0
0
0
0
0
0
0
0
0
0
0
0
0
0
0
0
0
0
0
0
0
0
0
0
0
0
0
0
0
0
0
0
0
0
1
0
0
0
0
0
0
0
0
0
0
0
0
0
0
0
0
0
0
0
0
0
0
0
0
0
0
0
0
0
0
0
0
0
0
0
0
0
0
0
1
0
0
0
0
0
0
0
0
0
0
0
0
1
1
0
0
0
0
0
0
0
0
0
0
0
0
0
0
0
0
0
0
0
0
0
0
0
0
0
0
0
0
0
0
0
0
0
0
0
0
0
0
0
0
0
0
0
0
0
0
0
0
0
0
0
0
0
0
0
0
0
0
0
0
0
0
0
0
0
0
0
0
0
0
0
0
0
0
0
0
0
0
0
0
0
0
0
0
0
0
0
0
0
0
0
0
0
0
0
0
0
0
0
0
0
1
0
1
0
0
0
0
0
0
0
1
1
1
1
0
0
0
0
0
0
0
0
0
0
0
0
0
0
0
0
0
0
0
0
0
0
0
0
0
0
0
0
1
1
0
0
0
0
0
0
0
0
0
0
0
0
0
0
0
0
0
0
1
0
0
0
0
0
0
0
1
1
0
1
1
0
0
1
0
0
0
0
0
0
0
1
0
1
0
0
0
0
0
0
0
0
0
0
0
0
0
0
0
0
0
0
0
0
0
0
0
0
0
0
0
1
1
0
0
0
1
1
0
0
0
0
1
0
0
1
0
1
0
0
0
0
0
1
0
0
0
1
0
0
0
0
0
0
0
0
0
0
0
0
0
0
0
0
0
0
0
0
0
0
0
0
0
0
0
1
0
0
0
0
0
0
1
0
0
0
0
0
0
0
0
0
0
0
0
0
0
0
0
0
0
0
0
0
0
0
0
0
0
0
0
0
1
0
1
0
0
0
0
0
0
0
1
0
0
0
0
0
0
0
0
0
0
0
1
0
0
0
0
0
0
0
0
0
1
0
0
0
0
0
0
0
1
0
0
0
0
0
0
0
1
0
0
0
0
0
0
0
0
0
0
0
0
0
0
0
0
0
0
0
1
0
1
0
0
0
0
0
1
0
0
0
0
0
0
0
0
0
0
0
0
0
0
0
0
0
0
0
0
0
0
0
0
0
1
0
1
0
0
0
0
0
0
0
0
0
1
0
0
0
0
0
1
0
0
0
0
0
0
0
0
0
0
0
0
0
0
0
1
0
0
0
0
0
0
0
0
1
0
0
0
0
0
0
0
0
0
0
0
0
0
0
0
0
0
0
0
0
0
0
0
0
0
0
0
0
0
0
1
0
0
0
0
0
0
0
0
0
0
0
0
0
0
0
0
1
0
0
0
0
0
0
0
0
1
0
0
0
0
0
0
0
0
0
1
0
0
0
0
0
1
0
0
0
0
0
0
0
0
0
0
0
0
0
0
0
0
0
0
0
1
0
0
0
0
0
0
1
0
0
0
0
0
0
0
0
1
0
0
0
0
0
0
0
0
0
0
0
0
0
0
1
0
0
1
0
0
0
1
0
0
0
0
0
0
0
0
0
0
0
0
0
0
0
0
1
0
0
0
0
0
0
0
0
0
0
1
0
1
0
0
0
0
0
0
1
0
0
0
0
0
0
0
0
0
0
0
0
0
0
0
0
0
0
0
0
0
0
0
0
0
0
0
1
1
0
0
0
0
0
0
1
0
0
0
0
0
0
0
0
0
0
0
0
0
1
0
0
0
0
0
0
0
1
0
0
0
0
0
0
0
0
0
0
0
0
0
0
0
0
0
0
0
0
0
0
0
0
0
0
0
1
0
0
0
0
0
0
0
0
0
0
1
0
0
1
0
0
0
0
0
0
0
0
0
0
0
0
0
0
0
0
0
0
0
0
0
0
0
0
0
0
0
0
0
1
0
0
0
0
0
0
0
1
0
0
0
0
0
0
0
1
0
0
0
0
1
0
0
0
0
0
0
0
0
0
0
0
1
0
1
0
0
0
1
0
				</DataArray>
				<DataArray type="Float64" Name="h" NumberOfComponents="1" Format="ascii">
1.1264958852
1.1264653356
1.1383226637
1.1308362478
1.1392263315
1.1368602229
1.1335960539
1.1260162351
1.1311716423
1.1219604393
1.1287321284
1.1355069023
1.1218153622
1.1268409145
1.1251853231
1.1144625607
1.1331298392
1.1206757189
1.1247164625
1.1289203841
1.1425409127
1.1195861889
1.1300492198
1.1444597342
1.1309538539
1.1121460335
1.1215087979
1.1583030015
1.1377832450
1.1251430442
1.1273530238
1.1323672890
1.1169447772
1.1388706440
1.1661099941
1.1466651099
1.1523429134
1.1296088396
1.1573331580
1.1458896255
1.1400567931
1.1629689051
1.1243488424
1.1388092156
1.1487198230
1.1515415601
1.1324024567
1.1747619764
1.2308286524
1.2210082955
1.1471965170
1.1488102228
1.1414458809
1.1942938375
1.1597521155
1.1232255185
1.1542676452
1.1927410739
1.1995686567
1.1926743369
1.2170611397
1.2092757163
1.2299466337
1.1513442613
1.1432449819
1.1732650510
1.2117917316
1.2197956356
1.2091461041
1.2002262900
1.2014492532
1.1626723223
1.1289135271
1.2018032112
1.2012085501
1.1637212510
1.1936773589
1.2155717956
1.1838328891
1.1624453367
1.2308658686
1.1807930508
1.2484760636
1.2101279374
1.1514284383
1.1736687124
1.2355309008
1.2011989556
1.2171095817
1.2408414359
1.2352533044
1.1666018248
1.2229091213
1.2318477340
1.1829253986
1.1761684103
1.1927188046
1.1550171728
1.1643265350
1.2346988114
1.2448165867
1.2311936779
1.1921845891
1.1824314519
1.1177850041
1.2037546275
1.1838389199
1.2359708003
1.2129974483
1.1856206031
1.2269361462
1.2363200783
1.2290118791
1.2330780537
1.2016704028
1.2514396454
1.1952741735
1.1209056617
1.2436895900
1.2117608975
1.1192965488
1.1958343019
1.1750419789
1.1215374273
1.2268276858
1.2402533147
1.2052489402
1.1199488233
1.2511410419
1.2513192070
1.2455542895
1.1866102930
1.2158929016
1.2555895467
1.1224243101
1.2426880972
1.1097293760
1.2558445016
1.2420391465
1.1115350980
1.1178195754
1.1224358398
1.2497242215
1.1145498816
1.1777937679
1.2426433186
1.1100093130
1.2588875217
1.1204524609
1.2615995237
1.1089983604
1.2579905130
1.2583791898
1.2633829930
1.2376288994
1.2562995319
1.2617783482
1.1163850319
1.2615971233
1.1176737834
1.1111988271
1.2590319074
1.1081815356
1.1168895533
1.1179265839
1.2544452604
1.1199526541
1.1090455773
1.1201260313
1.2581218147
1.2611634207
1.1194834310
1.2622890294
1.1149301655
1.1221087347
1.2640538939
1.1152525208
1.2582780609
1.2638780216
1.1157676530
1.2543774838
1.1320115329
1.1165454723
1.1787981657
1.1192665088
1.1191653826
1.1283185060
1.2630286621
1.1197124489
1.1198431991
1.1443204971
1.2638354872
1.1176079451
1.1395442330
1.2636805456
1.2566408826
1.1120791475
1.1575592834
1.1523918389
1.2625925576
1.1198611745
1.1839957284
1.1193943685
1.2631667121
1.1698652918
1.1114571763
1.1065470614
1.1067665061
1.1651633615
1.1120410863
1.1402407620
1.1186237124
1.1116163081
1.1119672132
1.1061965468
1.1538451478
1.1083390777
1.1096139252
1.1279760416
1.1149337353
1.1760833760
1.2319878312
1.1184403566
1.2141147106
1.1864730574
1.2606158750
1.2483327079
1.1994001473
1.1796285694
1.2408186422
1.2620847980
1.2227719661
1.1928541160
1.2620809449
1.2580439715
1.2063996548
1.1454120110
1.1025587152
1.1154349771
1.1093215523
1.1410479035
1.1024311958
1.1073608310
1.1130417292
1.1048407830
1.1054771507
1.1095353395
1.1320718695
1.1019477475
1.1052883659
1.1047974245
1.1276713350
1.1075123472
1.1592193154
1.1553064149
1.1079040835
1.1080958923
1.1045371238
1.1119720285
1.2184704601
1.1168661285
1.1863367527
1.1970391331
1.2103213310
1.1902299156
1.2558946556
1.2586448592
1.1771308287
1.2612566311
1.2273076866
1.2442970582
1.1209959436
1.2364881656
1.2029341121
1.2102681399
1.1804180704
1.1915972463
1.2031924353
1.2184403847
1.1841110844
1.2446313628
1.2605215036
1.2590828974
1.2555026694
1.2362342393
1.2274510731
1.1963348113
1.0978874057
1.1051985826
1.1027614936
1.1013957572
1.1465764938
1.0974539181
1.1002679999
1.1061285866
1.1418128325
1.1106082459
1.0970244050
1.1005106622
1.1079084394
1.1033426861
1.1001434873
1.1322270553
1.1567756378
1.1607760081
1.1006614161
1.1271534506
1.1046418507
1.1029912033
1.1862039082
1.2000926373
1.1950773717
1.2593585120
1.1780665061
1.2394984364
1.2142931094
1.1149755067
1.2316900400
1.2560089869
1.1198669231
1.2066710741
1.1894121806
1.2223880269
1.2529059485
1.1905540538
1.1944553979
1.2003528427
1.2567432247
1.2066802463
1.2227889397
1.2401710793
1.2521787021
1.2583514061
1.1810356458
1.2140745807
1.1842956894
1.2311287233
1.0965578970
1.2409239865
1.1020809171
1.1434701447
1.1076931567
1.1003619227
1.1479863261
1.0915347622
1.0921530789
1.0949705556
1.0976081876
1.2232047656
1.1838501422
1.1589902449
1.1972226737
1.0949417077
1.0979334675
1.2267794050
1.0955292620
1.1824001604
1.1267269228
1.1005420198
1.2009329781
1.2091517391
1.2331504229
1.1033459999
1.1323380007
1.1625786412
1.0910638312
1.1777306654
1.1807201401
1.1887091412
1.0982409034
1.1877950258
1.2088511380
1.0950829883
1.2523967440
1.2101661235
1.2031664329
1.2490321348
1.0645605734
1.2339243869
1.1857906764
1.1788351856
1.2264869681
1.2567488265
1.1125317466
1.2173458137
1.1184053340
1.1886616787
1.1975903171
1.1931390300
1.0639174943
1.2553318099
1.1813143321
1.2033355400
1.1606247650
1.2477883509
1.2097694068
1.0527505023
1.0434520245
1.0442940733
1.1225830114
1.1893884408
1.2350165781
1.1006020322
1.2179915165
1.1439309357
1.2536078013
1.2255947564
1.1843821658
1.1928254768
1.0805232080
1.1976398317
1.1815961443
1.2081368923
1.1809303448
1.0905579599
1.2302317372
1.2228405793
1.1039158083
1.2028427553
1.1860840694
1.1766720766
1.1718839031
1.0885437933
1.2160345444
1.2279498824
1.1965365917
1.2436987094
1.0948723365
1.2027397646
1.1507095200
1.1859332016
1.2236120710
1.1920265603
1.2152879434
1.1845721381
1.1924813941
1.1943785289
1.2152072343
1.2377502453
1.1748203614
1.1775793101
1.1777216414
1.0885417420
1.1884316358
1.1748094625
1.0953945444
1.1888360381
1.1747699477
1.2018676021
1.1960654323
1.1864285492
1.2481096926
1.0982428762
1.1831827529
1.1336717651
1.1718824294
1.2139525349
1.2071675903
1.1800845447
1.2087841232
1.0920662712
1.1654066565
1.0829025604
1.2531182316
1.1174942355
1.2061052265
1.1922140982
1.1876594551
1.1363127750
1.0805352976
1.2440245451
1.0997464755
1.2209835658
1.1324882412
1.1793646380
1.1950897236
1.2008031436
1.0704530233
1.0884037882
1.0581169762
1.0518692482
1.1659285376
1.0804757637
1.2493536941
1.1825720352
1.1923205694
1.2292111648
1.0466409501
1.2000673074
1.0288700701
1.1721236111
1.1840717107
1.1970901204
1.0850637109
1.0527517495
1.0517535772
1.0887585926
1.1902607632
1.2131418274
1.0365500736
1.1718703686
1.1835405471
1.0527789835
1.0442958250
1.1225792482
1.1146437148
1.1910699127
1.0923927660
1.1759084782
1.1696935964
1.0466389678
1.1507781157
1.1733040059
1.0997427184
1.1733261161
1.0884032003
1.1808730175
1.1771418501
1.0845579944
1.0898211898
1.1507818514
1.1785257660
1.1744709692
1.2377715923
1.0754451066
1.1895118026
1.0192425799
1.1757019962
1.1683134927
1.1427295902
1.1909693407
1.0828986728
1.1827262559
1.0750713893
1.0805327395
1.1160007772
1.0850621243
1.0887543050
1.0923935091
1.1683120752
1.1659336318
1.0937217330
1.0250513955
1.0887428854
1.0544714748
1.0804382319
1.0350508358
1.1324891943
1.0732338128
1.0184441316
1.2139848612
1.0378964405
1.0740282317
1.1559750963
1.0809664444
1.1670863166
1.1611659598
1.0169184852
1.2015161038
1.2129454657
1.1224780434
1.0210242299
1.2071718981
1.0804726497
1.1381782600
1.2152284114
1.1146417880
1.1922180167
1.1692074262
1.2480970913
1.1043589195
1.1716935420
1.1794034879
1.1719301044
1.1860864188
1.0757798058
1.1790613706
1.1734704110
1.1733051973
1.1200518830
1.0702857950
1.2018848257
1.1718717365
1.0000773431
1.1708633070
1.0635569007
1.2377412011
1.2081591635
1.1888377186
0.9952630228
1.2436859729
1.1101558038
1.0396493936
1.1369817446
1.0036486078
1.1831872285
1.1417303440
1.0809439349
1.1970110558
1.0907997665
1.1559540930
1.0994896032
1.1966118214
1.0638734102
1.1965464629
1.0196886951
1.0718128612
1.1856101764
1.2228538373
0.9814257353
1.0536198002
1.0669415995
1.1814765769
0.9921371541
1.1734703544
1.0620480443
1.1677688183
1.0750696679
1.1043567169
1.1427299944
1.0754423782
1.2189975505
1.1712146402
1.0704377512
1.0845570589
1.0819918782
0.9840864312
1.1777018767
1.0809648183
1.0081225543
1.0718124107
0.9882529924
1.0226391839
1.1611673149
1.0898180998
1.1224771556
1.0740261896
1.1710532530
1.1810447337
1.1691474487
1.1689952090
1.0887434087
1.0546417738
1.0916006646
1.1266276651
1.2007720482
1.1774784827
1.1559740574
1.0359540419
1.1896091446
0.9936776955
1.0723650462
1.0708088603
1.0580935253
1.0107340507
1.1054459761
1.1472989303
1.0804349920
1.1685821596
1.0628682174
1.0767667724
1.0611376934
1.1677975941
1.1742322577
1.1839857290
1.1671767321
0.9777368600
1.0868074511
1.0655784369
1.0578755667
1.1884809421
1.1888484996
1.1159985329
1.0381558224
1.0919468490
0.9961143564
1.1697956280
0.9968657992
1.0084132662
1.1835024246
1.1801212374
1.0679031597
1.0485476715
1.1713062044
1.0321492200
1.0211549446
0.9921208986
1.1746758139
1.1825252608
1.1774905902
1.0153841949
1.0036224755
0.9885587590
0.9897625206
0.9954182278
1.1741947701
1.1764102010
1.1716248893
1.1724756203
1.0023052733
1.1786804123
1.1808537969
0.9869656750
1.1810401351
1.1785133949
0.9814331619
1.1819721505
1.0378984790
1.1814478018
1.0071067955
1.0076731423
1.1822020698
0.9921443987
1.1812347695
1.1855062958
1.0210302078
1.1864888988
1.0103188442
0.9915088513
1.1854782905
1.1911686552
1.0449355493
1.1301944724
1.1323905602
1.1323594424
1.1301540307
1.1329482653
1.1355144889
1.1287418126
1.1282944850
1.1371627227
1.1368769589
1.1392037600
1.1371298684
1.1311527151
1.1252034797
1.1336131765
1.1241158719
1.1282803294
1.1329370372
1.1221409113
1.1206826760
1.1308274683
1.1383106661
1.1247531493
1.1251480645
1.1171280585
1.1357644058
1.1260024770
1.1121467354
1.1309597582
1.1219553825
1.1195194245
1.1217938821
1.1417244225
1.1141369922
1.1256226855
1.1241089153
1.1273572706
1.1221258226
1.1388716790
1.1169686177
1.1324310426
1.1174300659
1.1459033505
1.1513391198
1.1331275980
1.1144539632
1.1244073135
1.1574481424
1.1357599437
1.1171215490
1.1401048659
1.1268351421
1.1289173657
1.1417153236
1.1299788041
1.1774688558
1.1195589795
1.1515126250
1.1194985218
1.1425366364
1.1255716959
1.1231165827
1.1670584577
1.1747668675
1.1141252919
1.1487460958
1.1471981471
1.1324943103
1.1581883224
1.1444402063
1.1377192462
1.1543610477
1.1441956003
1.1214603354
1.1583910823
1.1180349964
1.1512277630
1.1657894823
1.1658039678
1.1174006911
1.1415353596
1.1774654461
1.2263396654
1.2241232311
1.1230678660
1.1515030911
1.1568132779
1.1669843411
1.1466267909
1.1433668728
1.1295242086
1.1723474593
1.1661037001
1.2299400982
1.2197810371
1.1693748009
1.1523385375
1.1513931443
1.1657605602
1.1873977540
1.1911761666
1.1387068601
1.2017989084
1.1893967626
1.1626939942
1.1289891764
1.2009008120
1.1393804510
1.1400464240
1.1583791256
1.2170328998
1.1658002918
1.1629209679
1.1936759852
1.2014468718
1.2054432739
1.2012039405
1.1440824050
1.1324087532
1.2091471404
1.1589271487
1.1180304304
1.2002305882
1.1567944873
1.1723381011
1.1710532098
1.1693156551
1.2139495091
1.1782831410
1.2168936759
1.2308318907
1.1487415962
1.2241313712
1.1514315098
1.1808282349
1.2101086798
1.1779265738
1.2263567005
1.2210273406
1.2170557793
1.2092674326
1.1323142279
1.2237801478
1.2054526550
1.1995713413
1.1875091341
1.1893949346
1.1560896155
1.1322168030
1.1873985336
1.1589245977
1.1748515918
1.1597206944
1.2081897709
1.2008990191
1.2170250886
1.1231702199
1.1835504866
1.2043043515
1.1392931289
1.1942855338
1.1911790234
1.1926764863
1.1666651272
1.1927409470
1.1399354783
1.2229127226
1.2139552194
1.1824346799
1.1644227096
1.1779084887
1.1436742792
1.1782763029
1.2312050436
1.2087957584
1.2281164392
1.2045162191
1.1731961564
1.2448447270
1.2118185111
1.1743066488
1.1551153500
1.2250774602
1.1762235042
1.1808330895
1.2169292439
1.2347086076
1.2037275199
1.1709812133
1.2516856672
1.1835215760
1.2129950316
1.2363284203
1.2237743625
1.2043099264
1.2290134234
1.1748411039
1.1636703352
1.2224697396
1.1875104516
1.2155728188
1.1321400766
1.2381810210
1.1560337157
1.2269147650
1.1856574533
1.2081900255
1.2281118795
1.2516538962
1.1910853544
1.2250660133
1.1736234422
1.1958369350
1.2129877206
1.1743034008
1.1163320115
1.1808237868
1.2045189532
1.1513516484
1.1623609414
1.2355204208
1.2484380440
1.2308557971
1.1952925421
1.1838317046
1.2088368491
1.1192954358
1.2012157197
1.1435979969
1.2381717765
1.1866285953
1.2176916884
1.1138468414
1.2402669318
1.2246314765
1.2369290553
1.2171152651
1.1828959545
1.2318611577
1.2481825791
1.2408194001
1.2352465728
1.2396772266
1.1916902648
1.2268201894
1.2052495121
1.2225174039
1.2513393913
1.1921720751
1.2482995306
1.2137252021
1.1910704366
1.1163329610
1.2129987859
1.2343069005
1.1224249857
1.2427016795
1.2158812877
1.1177865699
1.1927258559
1.1778205664
1.2097387433
1.1224355079
1.2224607431
1.1138489288
1.2481612395
1.2330800400
1.2359623707
1.1123926728
1.1916851923
1.2369240196
1.2016685785
1.1204506335
1.2177346941
1.2497423741
1.1208017698
1.2514202443
1.2246323449
1.2426570414
1.2396659874
1.1838280867
1.1215634751
1.1683331318
1.2062449951
1.2593436171
1.2482772683
1.2343104702
1.1107894270
1.2546516401
1.2447155873
1.2411714562
1.2117702482
1.2137876530
1.2580050434
1.1209046851
1.2444921939
1.2436766493
1.1237800845
1.1089916479
1.2583958898
1.2376426426
1.1123942165
1.1208035493
1.1090483766
1.1179231047
1.2224684208
1.2606717557
1.1215644358
1.1191052116
1.2601955106
1.2025588645
1.2097877871
1.1215385747
1.2511241142
1.1112118922
1.1192478418
1.1750170083
1.2455400929
1.1245850039
1.1081775355
1.2488894694
1.2590493090
1.1199510119
1.2616097504
1.2411577758
1.1097350408
1.2555738746
1.2589467361
1.1988734537
1.2446898027
1.2551311158
1.2558267270
1.2623006154
1.1257500442
1.1129656604
1.2420253428
1.1237784680
1.2062991292
1.1107957883
1.2593286930
1.1683021481
1.2444783800
1.2581407662
1.2499797966
1.2546343125
1.2611763708
1.1149261300
1.2615872422
1.1165412078
1.1946792955
1.1192500011
1.1191081638
1.2516975032
1.2608188076
1.2626752086
1.1145246496
1.2588691657
1.1100075353
1.1157634130
1.2601796199
1.1245833508
1.2025922768
1.1150934574
1.1178227866
1.2544001640
1.2488733038
1.1152794371
1.2468685970
1.1115234202
1.2606573254
1.1179848477
1.1197095010
1.2562799922
1.2617654653
1.1129697801
1.1913081193
1.2589298663
1.1233541821
1.1257486285
1.1989049932
1.1192629311
1.2551116645
1.2633734645
1.1163890597
1.2499645488
1.1283732394
1.1867119775
1.2636890132
1.1199105359
1.1179885721
1.2516696538
1.2566674561
1.1150973452
1.2626643684
1.2468536622
1.2568533367
1.1186222977
1.2608038215
1.1946908586
1.1187918965
1.2638446362
1.2534608758
1.1168935467
1.2544217099
1.1395990379
1.2600357450
1.1176775558
1.1840026241
1.2638053388
1.1194867683
1.1193903082
1.1220669435
1.2631754346
1.1913179948
1.1201282484
1.1198568159
1.1233541838
1.1524339209
1.2633496106
1.2638694819
1.1142016715
1.1186262207
1.1187951283
1.1186197787
1.2600189841
1.2568292552
1.1134649719
1.2542744548
1.1319628300
1.2534458092
1.2640458777
1.1867083161
1.1181058041
1.1187032293
1.2582538644
1.1116124744
1.1651892837
1.1442791860
1.2620950908
1.2637972410
1.1198475393
1.2633405438
1.2622165436
1.2631239600
1.1787847343
1.1191690283
1.2630189803
1.1760953476
1.1095316036
1.1054815154
1.1101335950
1.1048378393
1.1575336824
1.1187077682
1.1667496025
1.1164400035
1.1130613691
1.1079879191
1.1142059109
1.1454319609
1.1176123038
1.1165921010
1.2542389015
1.1120840639
1.1135506566
1.1045367240
1.1059203351
1.1592290116
1.1081071529
1.1075090591
1.1320991896
1.1181103889
1.1154301851
1.1134694709
1.2608842954
1.1713600785
1.1698538360
1.2622055774
1.2274038692
1.1210227094
1.2631145813
1.2101955343
1.1841186168
1.2591046951
1.2446657970
1.2540530178
1.1963104779
1.1771353561
1.2364864756
1.2625809627
1.2183956744
1.1902268102
1.2612721598
1.2512110826
1.2559293811
1.2028837218
1.1402098994
1.1014006885
1.1035993343
1.1149382751
1.1106220203
1.1465834760
1.1079920147
1.1667398287
1.1101381419
1.1133424504
1.1681934024
1.1002681128
1.1051957639
1.1164441022
1.1120215660
1.1067702441
1.1065431445
1.1114615707
1.1279425081
1.1001454533
1.1029893959
1.1165968443
1.1046509991
1.1322411201
1.1096180494
1.1538234301
1.1607744771
1.1013136319
1.1097994349
1.1083280823
1.1059238084
1.1061979594
1.1135554938
1.2228247866
1.1198832897
1.1726770822
1.1843000709
1.1944434669
1.2066181629
1.1928653244
1.2511666042
1.2580186504
1.2567712725
1.1796240604
1.2620693845
1.2507859164
1.2227209317
1.2401853486
1.1184119195
1.2608691374
1.2407978705
1.2064545493
1.2141811083
1.1780622255
1.1894143658
1.2000571008
1.2142151356
1.1864698219
1.2482924289
1.2540150927
1.2593786398
1.1713608022
1.2606023525
1.2529460223
1.2316596205
1.2474379321
1.2320051492
1.1994327674
1.0965630075
1.0987066686
1.1073644069
1.1133465190
1.1003604220
1.1025539559
1.1410320401
1.1696389672
1.0949725413
1.1681956078
1.1024319740
1.1077027472
1.1479843786
1.1093074640
1.1036011965
1.0949449038
1.0979333520
1.1098040610
1.1054852333
1.1019463753
1.1276512995
1.1625699050
1.0960879449
1.1552990060
1.1013146424
1.1005496273
1.1323432830
1.1047883374
1.1052910166
1.1843803096
1.2032408655
1.1928213074
1.2605060557
1.1804190464
1.2350092943
1.2185133886
1.1184146560
1.2362384368
1.2473978992
1.2466716752
1.2536366455
1.1739347417
1.1168474061
1.2032946791
1.1916020508
1.2179283949
1.2554685376
1.1886631948
1.1970628142
1.1975709341
1.2586248923
1.1726860059
1.2427800560
1.2103913204
1.2273552677
1.2442653915
1.2490667413
1.2567709045
1.1788249893
1.2101064694
1.1863336962
1.2264437376
1.2507429981
1.2302319906
1.1859307720
1.1712207810
1.2028309486
1.0978826586
1.0987063168
1.2364881426
1.2201704566
1.1039220866
1.1824490525
1.1507035629
1.1061181254
1.1954777487
1.2160245284
1.2328431268
1.1027636610
1.1418081329
1.1696502779
1.0885465303
1.0905628448
1.0974525842
1.1815929529
1.1781565542
1.1924763852
1.0948720804
1.1870248007
1.2069749528
1.0930005156
1.2281338787
1.1854501655
1.1653970964
1.2006955673
1.0970217163
1.1005113774
1.2414285379
1.2217980317
1.0954006716
1.1842985861
1.1336715699
1.1006538979
1.1970666515
1.2135253175
1.2377750305
1.1054891991
1.1271426619
1.1567794744
1.0898805337
1.0885453300
1.0960869469
1.1804252605
1.1791543950
1.1911955037
1.1006403700
1.1907839550
1.2134513291
1.0920673467
1.0752452365
1.2493762157
1.1758152230
1.2141434236
1.1404755971
1.2415427773
1.2000455208
1.2521431119
1.0581164102
1.0514698435
1.0477323784
1.2291949556
1.0288660012
1.0965448312
1.1840665826
1.2427562446
1.1810413718
1.1163720604
1.2311566385
1.1580661935
1.2583328308
1.1174984922
1.2130993380
1.1149632712
1.1905549751
1.2003862653
1.0578477991
1.1910681220
1.0527782724
1.2531375306
1.1793549811
1.2067269295
1.1559566581
1.2440460111
1.2060697073
1.2466375508
1.0659676019
1.0591888668
1.0333447971
1.2371497971
1.0337976222
1.1133659442
1.1876582525
1.2394876919
1.1739468526
1.0908017914
1.2224480423
1.1363160024
1.2559838599
1.2209475559
1.1862030695
1.1950903656
1.0704536216
1.1950808073
1.1831531415
1.1933206844
1.2121850426
1.2353362364
1.1771416543
1.1824520714
1.1785238350
1.1776383372
1.0921485786
1.2350243964
1.1839880917
1.2276456160
1.2350290706
1.1731001900
1.1020731284
1.2067794733
1.1877544872
1.1781572231
1.1879117929
1.1746740975
1.1753451692
1.0915325115
1.2207853029
1.2328390816
1.1995372822
1.2015107326
1.2067642884
1.1909648388
1.2474517511
1.0976088524
1.1810702625
1.2069835871
1.1434728766
1.1777320615
1.1766726877
1.2139826202
1.2129420199
1.1879139188
1.1827235718
1.2186168447
1.1954846443
1.2201732522
1.2035839445
1.0929988199
1.1712333125
1.1870277844
1.1954749909
1.2279509094
1.1838533152
1.1984151820
1.2197226924
1.2027329134
1.2420951020
1.1755763412
1.1807227386
1.1789244882
1.1802958061
1.0910607938
1.2364810361
1.1849095124
1.2305785850
1.1749561133
1.0955228369
1.2091637555
1.1908451447
1.1725891903
1.1725907556
1.1760958660
1.0898784942
1.2232077776
1.2267810163
1.2053969975
1.2001484734
1.1897970977
1.2510951488
1.1006432586
1.1848065776
1.1845693176
1.2009417311
1.1267232935
1.1746744942
1.2189961145
1.2118219311
1.1887118691
1.1823675360
1.2237152503
1.1907886282
1.2134588224
1.2043265256
1.0950821430
1.1589998495
1.1843014101
1.1972313890
1.0848402705
1.2553131674
1.1814726089
1.1966067483
1.2371424344
1.1125244703
1.0518704244
1.2098180601
1.0338006465
1.1716930798
1.1946953676
1.1893884782
1.1439273272
1.1970061794
1.0860829391
1.0514714296
1.0842103623
1.2477615415
1.0429677891
1.0967185338
1.1896037715
1.2256289999
1.0371501484
1.1713820711
1.1879302509
1.0752440421
1.0434541421
1.1390538185
1.1390499778
1.1251834042
1.1813218456
1.1976583976
1.2048557287
1.0805216959
1.1187379180
1.0916619615
1.0645605054
1.1790571682
1.1704191148
1.0438106794
1.0310519630
1.1598754372
1.0434481486
1.1758689133
1.0835512040
1.2523724214
1.1856052834
1.1960182956
1.2339312638
1.0525177372
1.2032017705
1.0333482948
1.1723736107
1.1857925294
1.1187348697
1.2007679414
1.0886527922
1.0591894198
1.0823384531
1.2415256230
1.0396474189
1.0889007365
1.1933681288
1.2173957855
1.0438133729
1.1739805248
1.1869448272
1.0639171615
1.0477335505
1.1133628579
1.0603126687
1.1089449293
1.1758251826
1.1931446327
1.2048163687
1.0578482253
1.0951541891
1.0659675512
1.0491815917
1.1722145558
1.1697524771
1.0582350233
1.0371465862
1.1432492419
1.1753968148
1.1345045321
1.0860808600
1.0967133281
1.1730996227
1.0916615215
1.1839911732
1.1748195498
1.1722216543
1.0717293933
1.1776712649
1.0109045665
1.0806074917
1.0354180535
1.2178091947
1.0937827511
1.1802266930
1.0360409576
1.1432533173
1.0887502278
1.1802293090
1.1911990489
1.1753459789
1.0215861936
1.2207764342
1.2414230030
1.1733266428
1.1804286553
1.2178114709
1.0487594624
1.0732728212
1.1933254405
1.2135397375
1.1673003287
1.0271504098
1.1831490663
1.0777218761
1.1776401418
1.1877984035
1.1700921814
1.1552201770
1.2152842038
1.1720820306
1.0083475963
1.2409161336
1.1993435806
1.1791555985
1.1947258175
1.2092929550
1.1497755002
1.0219608776
1.1947309095
1.2058908795
1.0848363609
1.1142836065
1.1856000110
1.0705744923
1.0842080819
1.2088578560
1.1104690587
1.0886511721
1.0888956710
1.1681437945
1.0951558275
1.1802981529
1.1700906706
1.1757006615
1.1598822862
1.0883668580
1.1775804843
1.0160342750
1.0854207879
1.0485466261
1.0814093617
1.0282361002
1.1251830621
1.0680501797
1.1809279583
1.1800867769
1.1748095602
1.0076674197
1.2331473445
1.1895074076
1.2186180104
1.0303686298
1.0702899060
1.1884357214
1.1539414207
1.0158399527
1.0765726008
1.1760973101
1.2092898284
1.1681447462
1.1668856435
1.1661024240
1.0071001515
1.1984202571
1.2087879531
1.1307902892
1.0118834531
1.1960705492
1.2035883889
1.0835484102
1.1336894412
1.1864319506
1.0729698872
1.0823362583
1.2197479695
1.1089412454