<VTKFile type="UnstructuredGrid" version="0.1">
	<UnstructuredGrid>
		<Piece NumberOfPoints="1862" NumberOfCells="3498">
			<CellData>
				<DataArray type="Int32" Name="type" NumberOfComponents="1" Format="ascii">
0
0
0
0
0
0
0
0
0
0
0
0
0
0
0
0
1
0
0
1
0
0
0
0
0
0
0
0
0
0
0
0
0
1
0
0
0
0
0
0
0
0
0
0
0
0
0
0
0
0
1
0
0
0
0
0
0
0
0
0
0
1
0
0
0
0
0
0
0
0
0
0
0
0
0
0
0
0
0
0
0
0
0
0
0
0
0
0
0
0
0
0
0
0
0
0
0
0
0
0
0
0
0
0
0
0
0
0
0
0
0
0
0
0
0
0
0
0
0
0
0
0
0
1
0
0
0
0
0
0
0
0
0
0
0
0
0
0
0
0
0
0
0
0
0
0
0
0
0
0
0
1
0
1
1
0
0
0
0
0
0
0
0
0
0
0
0
0
1
0
1
0
0
0
0
1
0
0
0
0
0
0
0
0
1
1
0
0
0
0
0
1
0
0
0
0
0
0
0
0
1
0
0
0
0
0
0
0
0
0
0
0
0
0
0
0
0
0
0
0
0
0
0
0
0
0
0
0
0
0
0
0
0
1
0
0
0
0
0
0
0
0
0
0
0
0
0
0
0
0
0
0
0
0
0
0
0
0
0
0
0
0
0
0
0
0
0
0
0
0
0
0
0
0
0
0
0
0
0
0
0
1
0
0
0
0
0
0
0
0
0
0
0
0
0
0
0
0
0
0
0
0
0
0
0
0
0
0
0
0
0
0
0
0
0
0
0
0
0
0
0
0
0
0
0
0
0
0
0
0
0
0
1
0
0
0
0
0
0
0
0
0
0
0
0
0
0
0
0
0
0
0
0
0
0
0
0
0
0
0
0
0
0
0
0
0
0
0
0
0
0
0
0
0
0
0
0
0
0
0
0
0
0
0
0
0
0
0
0
0
1
0
0
0
0
0
0
0
0
0
0
0
0
0
0
0
0
0
0
0
0
0
0
0
0
0
0
0
0
0
0
0
0
0
0
0
0
0
0
0
0
0
0
0
0
0
0
0
0
0
0
0
0
0
0
0
0
0
0
0
0
0
0
0
0
0
0
0
0
0
0
0
0
0
0
0
0
0
0
0
0
0
0
0
0
0
0
0
0
0
0
0
0
0
0
0
0
0
0
0
0
0
0
0
0
0
0
0
0
0
0
0
0
0
0
0
0
0
0
0
0
0
0
0
0
0
0
0
0
0
0
0
0
1
0
0
0
0
0
0
0
0
0
0
0
0
0
0
0
0
0
0
0
1
0
0
0
0
0
0
0
0
0
0
0
0
0
0
0
0
0
0
0
0
0
0
0
0
0
0
0
0
0
0
0
0
0
0
0
0
0
0
0
0
0
0
0
0
0
0
0
0
0
0
0
0
0
1
0
0
0
0
0
0
0
0
0
0
0
0
0
0
0
0
0
0
0
0
0
0
0
1
0
0
0
0
0
0
0
0
0
0
0
0
0
0
0
0
0
0
0
1
0
0
0
1
0
0
0
0
0
0
0
0
0
0
0
0
0
0
0
0
0
0
0
0
0
0
0
0
0
1
0
0
0
0
0
0
0
1
0
0
0
0
0
0
0
0
0
0
0
0
0
0
0
0
0
0
0
0
0
0
0
0
0
0
1
0
0
0
0
0
0
0
1
0
0
0
0
0
0
1
0
0
0
0
0
0
0
0
0
0
0
0
0
0
0
0
0
0
0
0
0
0
0
0
0
0
0
0
0
0
0
0
0
0
0
0
0
0
1
0
0
0
0
0
1
0
0
0
0
0
0
0
1
0
0
0
0
0
0
0
0
0
0
0
0
0
1
0
0
0
0
0
0
0
0
0
0
0
0
0
0
0
0
0
0
0
0
0
0
0
0
0
0
0
0
0
0
0
0
0
0
0
0
0
0
0
0
0
0
0
0
0
0
0
0
0
0
0
0
0
1
0
0
0
0
0
0
0
0
0
0
0
0
0
0
0
0
0
0
0
1
0
0
0
0
0
0
0
0
0
1
0
0
0
0
0
0
0
0
0
0
0
0
0
0
0
0
0
0
0
0
0
0
0
0
0
0
0
0
0
1
0
1
0
0
0
0
0
0
0
0
0
0
0
0
0
0
0
0
0
0
0
0
0
0
0
0
0
0
0
1
0
0
0
1
0
0
0
0
0
0
0
0
0
0
0
0
0
0
0
0
0
0
0
0
0
0
0
0
0
0
0
0
1
0
0
0
0
0
0
0
0
0
0
0
0
0
0
0
0
0
0
0
0
0
0
0
0
0
1
0
0
0
0
0
0
0
0
0
0
0
0
0
0
0
0
0
0
0
0
0
0
0
1
0
0
0
0
0
0
1
0
0
0
0
0
0
0
0
0
0
0
1
0
0
0
0
0
0
0
0
0
0
0
0
0
0
0
0
0
0
0
0
1
0
0
0
0
0
0
0
0
0
0
0
1
0
0
0
0
0
0
0
0
0
0
0
0
0
0
0
0
0
0
0
0
0
1
0
0
0
0
0
0
0
0
0
1
1
0
1
0
1
0
0
0
0
0
0
0
0
0
0
0
1
0
0
0
0
0
1
1
0
0
0
0
0
0
1
0
0
0
0
0
1
1
1
0
0
0
0
0
0
0
0
0
0
0
0
1
1
0
0
1
0
0
0
0
0
1
0
0
0
1
0
1
0
0
0
0
0
0
0
1
0
0
0
0
0
0
0
1
0
0
1
0
0
0
0
0
0
0
0
0
0
0
0
0
0
0
1
0
0
0
0
0
0
0
0
0
0
0
0
0
0
0
0
0
0
0
0
0
0
0
0
0
0
0
0
0
0
0
0
0
0
0
0
1
0
0
0
0
0
0
1
0
0
0
1
0
0
0
0
0
0
0
0
0
0
0
1
0
0
0
0
0
0
0
0
0
0
0
0
0
0
0
0
0
0
0
0
0
0
0
0
0
0
0
0
0
0
0
0
0
0
0
0
0
0
0
0
1
1
0
0
0
0
0
0
0
0
0
0
0
0
0
1
0
0
0
0
0
0
0
0
0
0
0
0
0
0
0
0
0
0
0
0
0
0
0
0
0
0
0
0
0
0
0
0
0
0
0
0
0
0
0
0
0
0
0
0
0
0
0
0
0
0
0
0
0
0
0
0
0
0
0
0
0
0
0
0
0
0
0
0
0
0
0
0
1
1
0
0
0
0
0
0
0
0
1
0
0
0
0
0
0
0
0
0
0
0
0
0
0
0
0
0
0
0
0
0
0
0
1
0
0
0
0
0
0
0
0
0
0
0
0
0
0
0
0
1
0
0
0
0
0
0
0
0
0
0
0
0
0
0
0
0
0
0
0
0
0
0
0
0
0
0
0
0
0
0
0
0
0
0
0
0
0
0
0
0
0
0
0
0
0
0
0
0
0
0
0
0
0
0
0
0
0
0
0
0
0
0
0
0
0
0
0
0
0
0
0
0
0
0
0
0
0
0
0
0
0
0
0
0
0
0
0
0
0
0
1
1
0
0
0
0
0
1
0
0
0
0
0
0
0
0
0
0
0
0
1
0
0
0
0
0
0
0
0
0
0
0
0
0
0
0
0
0
0
0
0
0
0
0
0
0
0
0
0
0
0
0
0
0
0
0
0
0
0
0
0
0
0
0
0
0
0
0
0
0
0
0
0
0
1
0
1
0
0
0
0
0
0
0
0
0
0
0
0
0
0
0
0
0
0
1
0
0
0
0
0
0
0
0
0
0
0
0
0
0
0
0
0
0
0
0
0
0
0
0
0
0
0
0
0
0
0
0
0
0
0
0
0
0
0
0
0
0
0
0
0
0
0
0
0
0
0
0
0
0
0
0
0
0
0
0
0
0
0
0
0
0
0
0
0
0
1
0
0
0
0
0
0
0
0
0
0
1
0
0
0
0
0
0
0
0
0
0
0
0
0
0
0
0
0
0
0
0
0
0
0
0
0
0
0
0
0
0
0
0
0
0
0
0
0
1
0
0
0
0
0
0
0
0
0
0
0
0
0
0
0
0
0
0
0
0
0
0
0
0
0
0
0
0
0
0
0
0
0
0
0
0
0
0
0
0
0
0
0
0
0
0
0
0
0
0
0
0
0
0
0
0
0
0
0
0
0
0
0
0
0
0
0
0
0
0
0
0
0
0
0
0
0
0
0
0
0
1
0
0
0
0
0
0
0
0
0
0
0
0
0
0
0
0
0
0
0
0
0
0
0
0
0
0
0
0
0
0
0
0
0
0
0
0
0
0
0
0
0
0
0
0
0
0
0
0
0
0
0
0
0
0
0
0
0
0
0
0
0
0
0
0
0
0
0
0
0
0
0
0
0
0
0
0
0
0
0
0
0
0
0
0
0
0
0
0
0
0
0
0
0
0
0
0
0
0
0
0
0
0
0
0
0
0
0
0
0
0
0
0
0
0
0
0
0
0
0
0
0
0
0
1
0
0
0
0
0
0
0
0
0
0
0
0
0
0
0
0
0
0
0
0
0
0
0
0
0
0
0
0
0
0
0
0
0
0
0
0
0
0
0
0
0
0
0
0
0
0
0
0
0
0
0
0
0
0
0
0
0
0
0
0
0
0
0
0
0
0
0
0
0
0
0
0
0
0
0
0
0
0
0
0
0
1
0
0
0
0
0
0
0
1
0
0
0
0
0
0
0
0
0
0
0
0
0
0
0
0
0
0
0
0
0
0
0
0
0
0
0
0
0
0
0
0
0
0
0
0
0
1
0
0
0
0
0
0
0
0
0
0
0
0
0
0
0
0
0
0
0
0
0
1
0
0
0
0
0
0
0
0
0
0
0
0
1
1
0
0
0
0
0
0
0
0
0
0
0
0
0
0
0
1
1
0
1
0
0
0
0
0
0
0
0
0
1
0
0
0
0
0
0
1
0
0
0
0
0
0
0
0
0
0
1
0
0
0
0
1
0
1
0
0
0
0
0
0
0
1
0
0
0
1
0
0
0
1
0
1
1
0
0
1
1
0
0
0
1
0
0
0
1
0
0
0
0
0
0
0
0
0
1
0
0
0
0
0
0
1
0
0
0
0
0
0
0
0
0
0
0
0
0
0
0
0
0
0
0
0
0
0
0
0
0
0
0
1
0
0
1
0
0
0
0
0
0
0
0
0
0
0
0
0
0
0
0
0
0
1
0
0
1
0
0
0
0
0
0
0
0
0
0
0
1
0
0
1
0
0
0
0
0
0
0
0
0
0
0
1
1
0
0
0
0
0
0
0
0
0
0
0
0
1
0
0
0
0
0
0
0
0
0
0
0
0
0
0
0
0
0
1
0
0
0
0
0
0
0
0
0
0
0
0
0
0
0
0
0
1
0
0
0
0
0
0
0
0
0
0
0
0
0
0
0
0
0
0
0
0
0
0
0
0
0
0
0
0
0
0
0
0
0
0
0
0
0
0
0
0
1
0
0
0
0
0
0
0
0
0
0
0
0
0
0
0
0
0
0
0
0
0
0
0
0
0
0
0
0
0
0
0
0
0
0
0
0
0
0
0
0
0
0
0
0
0
1
0
0
0
0
0
0
0
0
0
0
0
0
0
0
0
0
0
0
0
0
0
0
0
0
0
0
0
0
0
0
0
0
0
0
0
0
0
0
0
0
0
0
0
0
0
0
0
1
0
0
0
0
0
0
0
0
0
0
1
0
0
0
0
0
0
0
0
0
0
0
0
0
0
0
1
0
0
1
0
0
0
0
0
0
0
0
0
0
0
0
0
0
0
0
0
0
0
0
0
0
0
1
0
0
0
0
0
0
0
0
0
0
0
0
0
0
0
0
0
0
0
0
0
0
0
0
0
0
0
0
0
0
0
0
0
0
0
1
0
0
0
0
0
0
0
0
0
0
0
0
0
0
0
0
0
0
0
0
0
0
0
0
0
0
0
0
0
0
0
0
0
0
0
0
0
0
0
0
0
0
0
0
0
0
0
0
0
0
0
0
0
0
0
0
0
0
0
0
0
0
0
0
0
0
0
0
0
0
0
0
0
0
0
0
1
0
0
0
0
0
0
0
0
0
0
0
0
0
0
0
0
0
0
0
0
0
0
0
0
0
0
0
0
0
0
0
0
0
0
0
0
0
0
0
1
0
0
0
0
0
0
0
0
0
0
0
0
1
1
0
0
0
0
0
0
0
0
0
0
0
0
0
0
0
0
0
0
0
0
0
0
0
0
0
0
0
0
0
0
0
0
0
0
0
0
0
0
0
0
0
0
0
0
0
0
0
0
0
0
0
0
0
0
0
0
0
0
0
0
0
0
0
0
0
0
0
0
0
0
0
0
0
0
0
0
0
0
0
0
0
0
0
0
0
0
0
0
0
0
0
0
0
0
0
0
0
0
0
0
0
1
0
1
0
0
0
0
0
0
0
1
1
1
1
0
0
0
0
0
0
0
0
0
0
0
0
0
0
0
0
0
0
0
0
0
0
0
0
0
0
0
0
1
1
0
0
0
0
0
0
0
0
0
0
0
0
0
0
0
0
0
0
1
0
0
0
0
0
0
0
1
1
0
1
1
0
0
1
0
0
0
0
0
0
0
1
0
1
0
0
0
0
0
0
0
0
0
0
0
0
0
0
0
0
0
0
0
0
0
0
0
0
0
0
0
1
1
0
0
0
1
1
0
0
0
0
1
0
0
1
0
1
0
0
0
0
0
1
0
0
0
1
0
0
0
0
0
0
0
0
0
0
0
0
0
0
0
0
0
0
0
0
0
0
0
0
0
0
0
1
0
0
0
0
0
0
1
0
0
0
0
0
0
0
0
0
0
0
0
0
0
0
0
0
0
0
0
0
0
0
0
0
0
0
0
0
1
0
1
0
0
0
0
0
0
0
1
0
0
0
0
0
0
0
0
0
0
0
1
0
0
0
0
0
0
0
0
0
1
0
0
0
0
0
0
0
1
0
0
0
0
0
0
0
1
0
0
0
0
0
0
0
0
0
0
0
0
0
0
0
0
0
0
0
1
0
1
0
0
0
0
0
1
0
0
0
0
0
0
0
0
0
0
0
0
0
0
0
0
0
0
0
0
0
0
0
0
0
1
0
1
0
0
0
0
0
0
0
0
0
1
0
0
0
0
0
1
0
0
0
0
0
0
0
0
0
0
0
0
0
0
0
1
0
0
0
0
0
0
0
0
1
0
0
0
0
0
0
0
0
0
0
0
0
0
0
0
0
0
0
0
0
0
0
0
0
0
0
0
0
0
0
1
0
0
0
0
0
0
0
0
0
0
0
0
0
0
0
0
1
0
0
0
0
0
0
0
0
1
0
0
0
0
0
0
0
0
0
1
0
0
0
0
0
1
0
0
0
0
0
0
0
0
0
0
0
0
0
0
0
0
0
0
0
1
0
0
0
0
0
0
1
0
0
0
0
0
0
0
0
1
0
0
0
0
0
0
0
0
0
0
0
0
0
0
1
0
0
1
0
0
0
1
0
0
0
0
0
0
0
0
0
0
0
0
0
0
0
0
1
0
0
0
0
0
0
0
0
0
0
1
0
1
0
0
0
0
0
0
1
0
0
0
0
0
0
0
0
0
0
0
0
0
0
0
0
0
0
0
0
0
0
0
0
0
0
0
1
1
0
0
0
0
0
0
1
0
0
0
0
0
0
0
0
0
0
0
0
0
1
0
0
0
0
0
0
0
1
0
0
0
0
0
0
0
0
0
0
0
0
0
0
0
0
0
0
0
0
0
0
0
0
0
0
0
1
0
0
0
0
0
0
0
0
0
0
1
0
0
1
0
0
0
0
0
0
0
0
0
0
0
0
0
0
0
0
0
0
0
0
0
0
0
0
0
0
0
0
0
1
0
0
0
0
0
0
0
1
0
0
0
0
0
0
0
1
0
0
0
0
1
0
0
0
0
0
0
0
0
0
0
0
1
0
1
0
0
0
1
0
				</DataArray>
				<DataArray type="Float64" Name="h" NumberOfComponents="1" Format="ascii">
1.1418441948
1.1418395829
1.1459916053
1.1462825003
1.1447636296
1.1453194751
1.1455530645
1.1442610443
1.1446457332
1.1437409882
1.1459080935
1.1463253188
1.1404084838
1.1459003078
1.1432960423
1.1350021131
1.1469456128
1.1423606668
1.1404508934
1.1468900223
1.1466862335
1.1356818131
1.1387548366
1.1447857989
1.1468800063
1.1333563247
1.1290832230
1.1267968689
1.1408423839
1.1455954532
1.1467618366
1.1408100054
1.1324229319
1.1465477669
1.1439798280
1.1423892588
1.1462917468
1.1327599987
1.1233325702
1.1455307530
1.1424805510
1.1341270211
1.1327663303
1.1357514825
1.1436338680
1.1307917972
1.1359076909
1.1428058361
1.1037926691
1.1037211210
1.1461443020
1.1381150185
1.1384716194
1.1260330043
1.1398337657
1.1248821113
1.1348738752
1.1412380204
1.1367998559
1.1331761373
1.1387565352
1.1412255339
1.1087121321
1.1403402395
1.1315206798
1.1215044050
1.1033125288
1.1085787297
1.1393053973
1.1420603835
1.1382052702
1.1413826653
1.1246222760
1.1241420031
1.1316402796
1.1073669533
1.1402029685
1.1349257520
1.1427191879
1.1150497200
1.1358210921
1.1203436865
1.1001244698
1.1078701541
1.1133095236
1.1097167715
1.1329018101
1.1057887767
1.1282389261
1.0983455684
1.1250848742
1.1114538835
1.1341757889
1.0972343313
1.1113592335
1.1128869870
1.1043354155
1.1166667559
1.1183820839
1.1311593371
1.0995798369
1.1371635342
1.1132188381
1.1437506712
1.1419018966
1.1020145512
1.1035075834
1.1016187191
1.1326581687
1.1149406919
1.0981575351
1.0986502107
1.1279353507
1.1172748952
1.1151493852
1.1139405079
1.1170425463
1.1436179995
1.1112972596
1.1166263673
1.1429943460
1.1074492289
1.1022564361
1.1453816847
1.1201685044
1.1037055613
1.1188089125
1.1442412876
1.1216153482
1.1096040176
1.1201539355
1.1068856330
1.1198887213
1.1199097655
1.1450935316
1.1171355134
1.1318648874
1.1139520543
1.1332364371
1.1279189620
1.1424343115
1.1458546590
1.1182613358
1.1244835966
1.1057224832
1.1258570214
1.1300208375
1.1000708336
1.1444271539
1.0951315471
1.1318117083
1.1151240859
1.1106201879
1.0933610297
1.1355790710
1.1070658409
1.0974927439
1.1411895006
1.0949894164
1.1426164632
1.1238735337
1.1016996763
1.1290076778
1.1421307104
1.1425789151
1.1026231931
1.1203801140
1.1267791816
1.1447411694
1.1053049878
1.1032173185
1.1441659577
1.0937564844
1.1394887735
1.1160239527
1.0702605989
1.1200680749
1.1034957666
1.0759358514
1.1408911918
1.1059933806
1.1115626330
1.1417290877
1.0994798724
1.1445115645
1.1434579495
1.1156568931
1.0841259071
1.1443597519
1.1438355103
1.1064868132
1.0788577651
1.1426034949
1.1102664678
1.0720537232
1.1019017179
1.1367576054
1.1020509244
1.1050599953
1.0962419619
1.1439530870
1.0978375287
1.1436760301
1.0864952946
1.0985187317
1.1358479228
1.1221633833
1.1281362167
1.1006909446
1.1148914523
1.1019991788
1.1431161024
1.1361348195
1.1355532172
1.1251463936
1.0986499687
1.1188170113
1.1334628315
1.1062071215
1.1400768104
1.0972378642
1.0965017555
1.1110701042
1.0948736531
1.0959215440
1.1084089673
1.1019165769
1.0952387109
1.0959088226
1.0987230396
1.0971861148
1.0952081767
1.0957006490
1.1037964036
1.1085177521
1.0948412908
1.0995393739
1.1120697326
1.1399395837
1.1047352499
1.0959098076
1.1194758229
1.1296071700
1.1108785274
1.1243064868
1.1177418028
1.1328528378
1.1028222460
1.1157399566
1.1263498527
1.1085057224
1.0979556320
1.1302317570
1.0971560163
1.0948319678
1.1291476488
1.1141336331
1.1210030210
1.1355485359
1.0943558924
1.1009813988
1.0941361864
1.0929723090
1.0933780317
1.0943985136
1.1100034129
1.1193742336
1.0946878184
1.1094973439
1.0969787196
1.1056612719
1.1067707361
1.0979937810
1.0936277897
1.0937075308
1.0947059532
1.0935083744
1.0928343887
1.0947757860
1.0946485812
1.1014498767
1.1169651626
1.1120652179
1.1166905023
1.1006883736
1.0956497311
1.0940416078
1.1009240480
1.1256294687
1.1211186926
1.1071479438
1.0951131591
1.1084532077
1.1144917557
1.0949063888
1.0924924927
1.1008597260
1.1042316744
1.1169466119
1.1291429765
1.1204952817
1.1106220203
1.0960876196
1.0934776583
1.0949138309
1.0973954971
1.0920589481
1.1043021649
1.1220938167
1.0942392267
1.0921796448
1.0924871571
1.1218816133
1.0944781569
1.1114634803
1.0939788557
1.0926478115
1.1002617848
1.1293381916
1.0980091884
1.0935390693
1.0931115976
1.0995177211
1.1176601574
1.0932139119
1.0924618714
1.0924446509
1.1219675479
1.0926028939
1.0964821741
1.1054185523
1.1251856992
1.1285900075
1.0953202886
1.0958897680
1.0938393965
1.1048473843
1.0960818725
1.1507269316
1.0858135172
1.0914325941
1.0917134586
1.1160762016
1.0933471714
1.0955846444
1.0890983384
1.1025649502
1.1103215206
1.1414343517
1.0994607751
1.0942944076
1.1054848782
1.0988324926
1.1115713184
1.1530331967
1.0867775554
1.1001882120
1.0887521464
1.0937308225
1.1190609227
1.1220724845
1.1573317107
1.1204915085
1.0919721713
1.0948938853
1.0926118928
1.1035754917
1.1021262081
1.0978571375
1.1096148240
1.1029441149
1.1391330777
1.1052548164
1.1378960490
1.0952537959
1.0951842588
1.1258498085
1.0514287745
1.1184872534
1.0955849657
1.0958431476
1.1044388417
1.1325210526
1.0865389627
1.1034887932
1.0913589973
1.0935403793
1.0923252363
1.0933181253
1.0661853770
1.1381116590
1.0970721033
1.0932347297
1.1062726090
1.1333989924
1.0984017157
1.0341930359
1.0335703427
1.0410632547
1.0977305349
1.0942180569
1.1112476640
1.0900808755
1.0990247539
1.1031237864
1.1311209248
1.1104595517
1.0947050390
1.0926205928
1.0797196847
1.0933833418
1.1015290682
1.1073692576
1.1017334952
1.0842638870
1.1478681134
1.1253199565
1.0848105392
1.1123052030
1.0971532949
1.1060308253
1.1050022230
1.0894695143
1.1324714136
1.1563562032
1.0973085157
1.1459750496
1.1042763168
1.1281544886
1.0936803640
1.0979940065
1.1593302114
1.1094720021
1.1479176184
1.1001918114
1.1000833363
1.1503853448
1.1158433698
1.1413005379
1.1079948021
1.1037532077
1.1082616458
1.0865176590
1.1290424042
1.1056324567
1.0836639423
1.0958197966
1.1039181721
1.1015152154
1.1338243617
1.1133195251
1.1478838062
1.1096127259
1.0989834674
1.0903909592
1.1050022075
1.1637151698
1.1535418130
1.1024008401
1.1617543841
1.0988967148
1.0963873374
1.0734639784
1.1411332542
1.0872389329
1.0977914370
1.0955822807
1.0950599295
1.1042593691
1.0757209135
1.1338958195
1.0802425644
1.1098372589
1.0907791287
1.0981198142
1.0936135369
1.1664535803
1.0772619672
1.0906601348
1.0429597836
1.0357805189
1.0987273369
1.0733726536
1.1391618912
1.1583572861
1.1622415944
1.1181210300
1.0319731973
1.0949101519
1.0227976783
1.1064556907
1.0965922617
1.1685031890
1.0846430105
1.0341940874
1.0527089664
1.0759558836
1.1683694746
1.1028186586
1.0174030816
1.1220919066
1.1432618892
1.0598515640
1.0410648555
1.0977309554
1.0855358245
1.0939061838
1.0968553263
1.1008524489
1.1059816308
1.0319711279
1.0953932457
1.1102641526
1.0802443530
1.1093643135
1.0906598550
1.1167486242
1.1059397756
1.0831336281
1.0742516920
1.0953965186
1.1022133634
1.1053612110
1.1557389437
1.0655907026
1.1389007624
0.9929668002
1.1043370806
1.1094251842
1.0948830923
1.1220809779
1.0734624536
1.1056863154
1.0680352171
1.0757185483
1.1026242785
1.0846419088
1.0759557943
1.0968552231
1.1094251073
1.0987299997
1.0956468725
1.0357285388
1.0898805167
1.0721459651
1.0687840380
1.0141113271
1.0907825714
1.0855914926
1.0173959840
1.1626192516
1.0551100176
1.0652898442
1.1089129811
1.0768476474
1.1094664668
1.0992844397
1.0046067760
1.1451544669
1.1583229938
1.0888260193
1.0002799831
1.1535436057
1.0733705782
1.1065260185
1.1158746119
1.0855387886
1.0955785214
1.1069691406
1.1478809055
1.0808836032
1.1051972357
1.1301960237
1.1058704041
1.0971542654
1.0677746129
1.1008272662
1.1083159666
1.1102631225
1.0914349087
1.0627250744
1.1015133454
1.1220908077
0.9702992372
1.1070643217
1.0525237470
1.1413143764
1.1073816031
1.0958192983
1.0035345010
1.1459741370
1.1058461614
1.0434862763
1.1065769626
1.0266782935
1.0989849045
1.0979062686
1.0751923279
1.1678374356
1.0890990930
1.1078225540
1.0826767306
1.1656634868
1.0556768862
1.0973022398
1.0461247630
1.0908316670
1.1600721770
1.1253624518
0.9595292585
1.0796826639
1.0564778990
1.1499542464
0.9837068456
1.1083158436
1.0521023504
1.1075338538
1.0680351070
1.0808863076
1.0948850666
1.0655911517
1.1623633326
1.1089157335
1.0611420961
1.0831338721
1.0717882462
0.9910603183
1.1651555540
1.0768474839
1.0407397034
1.0908319409
1.0052206683
1.0572910340
1.0992857136
1.0742539380
1.0888285672
1.0652899779
1.1413185064
1.1702727272
1.1237089522
1.1062546597
1.0898810660
1.0822764188
1.0985414253
1.0950542381
1.1673015027
1.1367677687
1.1089129251
1.0646471116
1.1657687769
1.0222370607
1.0670449336
1.0599932748
1.0468844006
1.0435330684
1.0874733417
1.1005430386
1.0687853694
1.1277764126
1.0573218896
1.0677918683
1.0480562700
1.1127958871
1.1551766036
1.1717954182
1.1154424412
0.9809982596
1.0776060768
1.0531280069
1.0500855356
1.1708040384
1.1710874531
1.1026246029
1.0711671925
1.0981363242
1.0225548811
1.1422515416
1.0281679472
1.0442048856
1.1736469504
1.1733314568
1.0813984180
1.0714587968
1.1522675872
1.0602846806
1.0529780126
1.0232604416
1.1672867394
1.1735697505
1.1724409735
1.0394578391
1.0157359724
1.0107521277
0.9980816780
1.0170338847
1.1642227417
1.1714941233
1.1355426681
1.1513510190
1.0317274767
1.1742498856
1.1746269294
0.9843597548
1.1702697944
1.1611092100
0.9595307905
1.1747848224
1.0551106854
1.1730909690
0.9926161490
1.0090629201
1.1748971587
0.9837085419
1.1743620611
1.1725249734
1.0002814383
1.1715578294
0.9839736456
0.9618438369
1.1705242075
1.1704390574
1.0240111730
1.1425475318
1.1439168180
1.1439137367
1.1425427265
1.1459183489
1.1463220310
1.1459104656
1.1447358598
1.1437555516
1.1453154371
1.1447670698
1.1437572260
1.1446452022
1.1433021483
1.1455537970
1.1444704310
1.1447320777
1.1459188454
1.1416569242
1.1423661639
1.1462801586
1.1459959625
1.1404564020
1.1455989690
1.1381089448
1.1467981963
1.1442565920
1.1333609493
1.1468816459
1.1437359642
1.1381207355
1.1404013041
1.1458718413
1.1318694619
1.1385338878
1.1444658764
1.1467645612
1.1416507634
1.1465420434
1.1324297929
1.1408143266
1.1288460477
1.1455245785
1.1210218321
1.1469466011
1.1349921582
1.1327611543
1.1232931727
1.1468022938
1.1381042292
1.1424790065
1.1458971074
1.1468868608
1.1458779760
1.1387520788
1.1415038457
1.1356785372
1.1452825543
1.1381143841
1.1466938483
1.1385291227
1.1358820476
1.1263686032
1.1428024200
1.1318612180
1.1436307833
1.1461365370
1.1359052468
1.1268149057
1.1447905158
1.1408419956
1.1348736407
1.1230955844
1.1290881134
1.1445604882
1.1400206576
1.1210637151
1.1369367776
1.1452953328
1.1288445855
1.1384702768
1.1415026787
1.1015442617
1.1115745575
1.1358809081
1.1452896220
1.1435287351
1.1263777777
1.1423899051
1.1315042808
1.1327713557
1.1405832995
1.1439846876
1.1087620433
1.1086245123
1.1301159718
1.1463004944
1.1403412989
1.1369271588
1.1397750522
1.1379611834
1.1357589618
1.1241849033
1.1306285949
1.1413823615
1.1245985729
1.1409424994
1.1190567779
1.1279572178
1.1445661301
1.1400332703
1.1453030422
1.1341181174
1.1402064062
1.1382124439
1.1273128241
1.1316654208
1.1231362153
1.1286276779
1.1393074811
1.1455597286
1.1400153220
1.1420568352
1.1435322343
1.1405791797
1.1177660624
1.1301068630
1.1110994684
1.1378554101
1.1014301920
1.1037422344
1.1381127585
1.1115206432
1.1308071852
1.1203467070
1.1078998356
1.1289802308
1.1015038651
1.1036771164
1.1387544138
1.1412287245
1.1286479406
1.1365686081
1.1272741249
1.1367880956
1.1364669007
1.1306015327
1.1091552873
1.1199395390
1.1397701872
1.1455676851
1.1358530603
1.1398303513
1.1378745857
1.1409433959
1.1400341994
1.1248944759
1.1241480804
1.1339543935
1.1190995483
1.1259999980
1.1379505882
1.1331535346
1.1113683343
1.1412384284
1.1279865751
1.1341879501
1.1110548111
1.1437450676
1.1183656409
1.1289584438
1.1148839754
1.1378442026
1.1371645513
1.1012824565
1.1314419947
1.1098228090
1.1215073428
1.0995944154
1.1032863770
1.1447172724
1.1166193533
1.1388752628
1.1129086153
1.1321133207
1.1014008093
1.1311722722
1.1020221169
1.1177823474
1.1008885106
1.1241287168
1.1326788212
1.0986772003
1.1365637088
1.1339348641
1.1279606239
1.1358372101
1.1074341212
1.0966835835
1.1364516265
1.1349127152
1.1199686157
1.1272130364
1.1091900591
1.0981886075
1.1149426288
1.1378675440
1.1314266148
1.1008864729
1.1225546497
1.1388762882
1.1096803715
1.1074482886
1.1253225778
1.1447243309
1.1395826426
1.1320908718
1.1097978908
1.1133549937
1.1151343020
1.1328947046
1.1001220053
1.1358166799
1.1170655075
1.1427221201
1.1012701505
1.1429980227
1.1057830430
1.1149241752
1.1271951482
1.1068773219
1.0979731762
1.1374255068
1.1037463592
1.1258427181
1.1201271542
1.1282067684
1.1113640950
1.0972184534
1.1079725873
1.0983370548
1.1250598224
1.1085919088
1.1431393502
1.1202149133
1.1188518971
1.0966663386
1.1096199809
1.1132133702
1.1034864864
1.0965518046
1.1225267481
1.1395787668
1.1252808749
1.1115652959
1.1450963398
1.1171632244
1.1199402023
1.1418987991
1.1043461369
1.1056463849
1.0981159364
1.1458569541
1.1172831126
1.1374222925
1.1079519374
1.1172332278
1.1015803447
1.1352792954
1.1431448752
1.1200928037
1.1151189946
1.1444293577
1.0979504629
1.1182757038
1.1451416634
1.1139306160
1.1258109228
1.1258722822
1.1085534760
1.1035622154
1.1448575901
1.1039850609
1.0966189051
1.1098172950
1.1034667049
1.1115158667
1.1346030114
1.1190227210
1.1017445447
1.1318715074
1.1165755104
1.0965406001
1.1151275736
1.1436146502
1.1280888950
1.1112639058
1.1454074278
1.1318142553
1.1106187718
1.1355798039
1.1352722555
1.1451396623
1.1267888786
1.1425804216
1.1172294008
1.0991491386
1.1448554848
1.1437830841
1.0985014566
1.0994996415
1.0981080184
1.1453796172
1.1216094577
1.1238823675
1.1435980979
1.1023059206
1.1201349233
1.1464170015
1.1290149916
1.1263032371
1.1016910448
1.1442392597
1.0949792449
1.1318657112
1.1318592768
1.1199079196
1.1062909709
1.0977396469
1.1017200036
1.1123084129
1.1139518527
1.0937544028
1.1465178244
1.1371950494
1.1332341745
1.1454048246
1.0966166329
1.1346025229
1.1098176925
1.1040084385
1.1280806811
1.1053003089
1.1276978353
1.1190191431
1.1032197536
1.1394895915
1.0951403512
1.1417304749
1.1003054481
1.1435954269
1.1437815356
1.1018219679
1.1023732584
1.0902831261
1.1244795342
1.1000781743
1.1300110367
1.1408919567
1.0985092897
1.1464145083
1.0995053833
1.1401097096
1.1424325879
1.1059977619
1.1262969561
1.1200657485
1.1309049933
1.1279065840
1.0991590197
1.1428328391
1.1443613289
1.1070674471
1.0974966039
1.1371945146
1.0980997502
1.1062981567
1.1459996113
1.1465153935
1.0977457526
1.1445129525
1.1123039951
1.0933614258
1.1411889292
1.1276951711
1.1156285910
1.1001107889
1.0720560614
1.1203928591
1.1428316441
1.1018151819
1.1018985325
1.1401084056
1.0902910037
1.1309029811
1.1010443740
1.1435298178
1.1023809646
1.1003220079
1.1437424489
1.0788578552
1.1243233047
1.1421301458
1.1026208628
1.1102328019
1.1011887259
1.1426151246
1.0978245571
1.0782144487
1.1441644432
1.1436779269
1.1160407101
1.0864956060
1.0981155136
1.1447393756
1.1439550016
1.1459975807
1.1050338047
1.0833623807
1.0759367576
1.1390108810
1.1435284426
1.1437409459
1.1431180471
1.1011905781
1.1010480977
1.1385199907
1.1022256298
1.1115888848
1.1243202026
1.0702600853
1.1001329380
1.1426263559
1.1432408663
1.1034953185
1.1361363446
1.1006749032
1.1065109766
1.0971934684
1.0782093726
1.1438333875
1.0833556885
1.0924520302
1.0903123111
1.0994946707
1.1434560504
1.0841287730
1.0972297057
1.1328556547
1.1177540794
1.1341545665
1.1243135956
1.1020672186
1.1432384140
1.0962913538
1.1412544495
1.1108748378
1.1309162884
1.1390104467
1.0995312247
1.1426014654
1.1414181423
1.1022259085
1.1367570483
1.1379822312
1.1210146777
1.1274361182
1.0971523804
1.1141411130
1.1302334521
1.1028096773
1.1426234348
1.1399435711
1.1385186204
1.1020099225
1.0956359438
1.0985276420
1.0924531580
1.0956337052
1.1067584654
1.0903002208
1.0937079227
1.0946471953
1.1120866098
1.1014266766
1.1056391393
1.0940367529
1.0946882937
1.0979677202
1.0962263386
1.0943516499
1.0943934532
1.1095262543
1.1057782106
1.1100145704
1.0936267638
1.1020148340
1.1071589938
1.1230040453
1.1400743229
1.1008587005
1.0951109566
1.1309150305
1.0962944064
1.1341533953
1.1379473057
1.0944044556
1.1145014586
1.1256320021
1.1412521654
1.1148903146
1.1281312851
1.1221494606
1.1358451959
1.1062261311
1.1106343355
1.1220962319
1.1414146826
1.1043079145
1.0960848875
1.1334616785
1.0986587314
1.0949115152
1.1183878401
1.1326546751
1.1188046701
1.1274330583
1.1251357906
1.1379778281
1.0952058627
1.0980059209
1.0950697103
1.0938402236
1.0924653946
1.0926039014
1.0957134772
1.1057845020
1.1085047770
1.1219944679
1.0959113946
1.1037765142
1.1114102243
1.0964433544
1.1053620905
1.1110834106
1.1020019191
1.0987378529
1.0948432640
1.0948701193
1.0944757800
1.0931139494
1.0921856602
1.0939644920
1.0959290216
1.1019299834
1.1056403355
1.1219129460
1.0956366020
1.1083849724
1.1176710983
1.1002024441
1.1115136218
1.0965080159
1.0952472609
1.0960902836
1.1127388887
1.1296042950
1.1379445544
1.1160782915
1.1120558293
1.0959141215
1.0947736898
1.1025733682
1.0944067019
1.1194675318
1.0917158183
1.0933430208
1.1047345888
1.1230005692
1.0988421105
1.1115741487
1.1326497566
1.1251560494
1.1157266845
1.0979620623
1.0948881694
1.1070099413
1.0948343455
1.1183826168
1.0937362176
1.0919701870
1.1084958318
1.1263482570
1.0947019318
1.0928332386
1.0926259653
1.1169401082
1.0947052425
1.1111718108
1.0947940375
1.0913594504
1.1007412673
1.1115392745
1.1186390908
1.1311426412
1.0961839071
1.1009872458
1.0932415343
1.0935092780
1.0989828240
1.1166712888
1.0935416023
1.0929720228
1.0923348246
1.1193437207
1.0950729941
1.1186936169
1.0933816655
1.0970179329
1.1057041416
1.1258486856
1.1325454969
1.0958373450
1.0952432000
1.0941348900
1.1043671104
1.1114213470
1.1478583411
1.0979942644
1.0965729435
1.1123016052
1.1009132145
1.1127341162
1.1516398046
1.1481273135
1.0848119203
1.1001672830
1.0936749319
1.0949032053
1.1100764009
1.1324507408
1.1554319706
1.1211158021
1.0924957294
1.0947801329
1.0894750341
1.0842689989
1.1084445577
1.1015283074
1.1042061579
1.1000868846
1.1042776731
1.0997617977
1.1299204797
1.1003037646
1.1416228071
1.0980421628
1.0963819284
1.1058628759
1.1042203299
1.1169442291
1.1531371008
1.1535194889
1.0836675742
1.0990763385
1.0903869316
1.0973879647
1.1172799113
1.1234692937
1.1557384168
1.1251513026
1.0920604910
1.0934824958
1.0937570776
1.0865237942
1.1070043783
1.1018842772
1.1039300989
1.0973891315
1.1153622961
1.1034495743
1.1402339232
1.0988990334
1.0720940321
1.1391718497
1.0982880030
1.0959126397
1.1050318436
1.1265168670
1.0949186634
1.1251735808
1.0429581356
1.0336691438
1.0397227533
1.1180527516
1.0227965194
1.0927448365
1.0965882394
1.1187388335
1.0953231501
1.0946677913
1.1049246177
1.1053999302
1.1285654281
1.0872372270
1.1027900986
1.0926475867
1.0932099362
1.0924366480
1.0687146045
1.0939087263
1.0598504638
1.1411461337
1.0981154908
1.0935390186
1.1078225412
1.1338832760
1.0977885144
1.1186684695
1.0518071699
1.0427771602
1.0219094554
1.1264871921
1.0297040950
1.0980070254
1.0950582012
1.1115324051
1.0961901376
1.0890982803
1.0995719732
1.1042591487
1.1293119796
1.1097794130
1.0942384025
1.0924809847
1.0772609183
1.0936211276
1.0998790073
1.1413885902
1.1083627925
1.1343369770
1.1059397816
1.1001673363
1.1022136960
1.1041865738
1.0890911154
1.1474407452
1.1181938709
1.1259754664
1.1474334055
1.1075030002
1.0858099585
1.1136818809
1.0959667118
1.1042062643
1.0969607668
1.1034459464
1.1037767037
1.0955784510
1.1333769799
1.1554317722
1.0973971342
1.1451532096
1.1136708609
1.1220829693
1.1449732391
1.1103190773
1.0993950301
1.1299281701
1.0914380062
1.1035758447
1.1060309269
1.1626185188
1.1583209156
1.0969591814
1.1056877820
1.1603039399
1.1100739286
1.1481349108
1.1585629593
1.1002995668
1.0965792190
1.0997597190
1.1003182842
1.1563561966
1.0994613106
1.1518166914
1.1168524163
1.1281529359
1.1408832274
1.1061138036
1.1021265862
1.1021335425
1.1091502330
1.0926041863
1.1516406840
1.1264177110
1.1342196980
1.1074302328
1.0867719724
1.1220855525
1.0949467611
1.1057631301
1.1057631582
1.1028567155
1.0937530655
1.1414512106
1.1530397410
1.1019044144
1.1359650779
1.1143561184
1.1455541616
1.1153586774
1.0976026279
1.1001930795
1.1190648663
1.0887553101
1.1034463180
1.1623633057
1.1537802106
1.0978551618
1.1020761507
1.1607797051
1.1034471009
1.1402475975
1.1623374162
1.1052523268
1.0943010332
1.0990755877
1.1054817890
1.0768392761
1.1380937620
1.1499554490
1.1656608939
1.1265352853
1.0865385108
1.0357822176
1.0984174973
1.0297053300
1.1051975808
1.0951695849
1.0942160017
1.1031239942
1.1678329510
1.0863513465
1.0336704537
1.0826584254
1.1334005498
1.0518753038
1.0789622655
1.1657666968
1.1105334552
1.0216575378
1.1133978784
1.1547865952
1.0720954947
1.0335721221
1.1011880343
1.1011882786
1.0876434214
1.0970764015
1.0933740300
1.1654267999
1.0797208587
1.1002485047
1.0974771918
1.0514304396
1.1008265016
1.1057968390
1.0260354244
1.0163571294
1.0964407185
1.0243108201
1.1197347520
1.0790294367
1.1378822522
1.1600720404
1.1625346911
1.1185596314
1.0394709532
1.0951800568
1.0219107915
1.1049922356
1.0955867765
1.1002488884
1.1672976182
1.0916930318
1.0427784520
1.0794499811
1.1265567062
1.0434852199
1.0768451582
1.1678140568
1.1035358386
1.0260369305
1.1244527073
1.1460730993
1.0661866924
1.0397246340
1.0980075281
1.0592693255
1.0826829714
1.0982927281
1.0933117936
1.1662678929
1.0687155748
1.1034471103
1.0518088040
1.0370441348
1.0991884769
1.1053321221
1.0442719295
1.0216559426
1.0925148551
1.1115331361
1.1068797903
1.0863488607
1.0789620341
1.1075028753
1.0974758985
1.1181915749
1.1079947428
1.0991911938
1.0890195576
1.1040993163
1.0190377080
1.0757974300
1.0599081901
1.1577774596
1.0778814706
1.1010919118
1.0141571609
1.0925193786
1.0931594903
1.1010914806
1.0973855667
1.1037764879
1.0257165654
1.1333508729
1.1531391521
1.1093644415
1.1018854325
1.1577796036
1.0659774836
1.0644130233
1.1413871627
1.1234924643
1.1106158618
1.0041080893
1.0998777623
1.0715500052
1.1041855072
1.1029423956
1.1075777074
1.1084604411
1.1479125171
1.1021334345
0.9893608093
1.1507305746
1.1583039985
1.1039300704
1.1242573815
1.1636351984
1.0978365908
1.0040009744
1.1242560683
1.1464381613
1.0768361638
1.1029785074
1.1064618833
1.0610947782
1.0826551312
1.1391416254
1.1046502768
1.0916913852
1.0768427743
1.1088060136
1.1034454791
1.1091486770
1.1075776717
1.1043379092
1.0964445077
1.0971167175
1.1037531171
1.0309844341
1.0827757194
1.0714582608
1.0703859360
1.0024873705
1.0876474839
1.0862459546
1.1017336056
1.1023999341
1.1056323400
1.0090617062
1.1573314365
1.1389028969
1.1603043618
1.0528415335
1.0610663012
1.1290404711
1.1107193211
0.9907312532
1.0693338489
1.1028562409
1.1636338896
1.1088061253
1.1111784569
1.1013985080
0.9926144800
1.1518173210
1.1617563515
1.0925830041
0.9875194091
1.1338233198
1.1585641925
1.0790261262
1.1085097745
1.1133172703
1.0645959657
1.0794480257
1.1169015676
1.0826853693