<VTKFile type="UnstructuredGrid" version="0.1">
	<UnstructuredGrid>
		<Piece NumberOfPoints="1862" NumberOfCells="3498">
			<CellData>
				<DataArray type="Int32" Name="type" NumberOfComponents="1" Format="ascii">
0
0
0
0
0
0
0
0
0
0
0
0
0
0
0
0
1
0
0
1
0
0
0
0
0
0
0
0
0
0
0
0
0
1
0
0
0
0
0
0
0
0
0
0
0
0
0
0
0
0
1
0
0
0
0
0
0
0
0
0
0
1
0
0
0
0
0
0
0
0
0
0
0
0
0
0
0
0
0
0
0
0
0
0
0
0
0
0
0
0
0
0
0
0
0
0
0
0
0
0
0
0
0
0
0
0
0
0
0
0
0
0
0
0
0
0
0
0
0
0
0
0
0
1
0
0
0
0
0
0
0
0
0
0
0
0
0
0
0
0
0
0
0
0
0
0
0
0
0
0
0
1
0
1
1
0
0
0
0
0
0
0
0
0
0
0
0
0
1
0
1
0
0
0
0
1
0
0
0
0
0
0
0
0
1
1
0
0
0
0
0
1
0
0
0
0
0
0
0
0
1
0
0
0
0
0
0
0
0
0
0
0
0
0
0
0
0
0
0
0
0
0
0
0
0
0
0
0
0
0
0
0
0
1
0
0
0
0
0
0
0
0
0
0
0
0
0
0
0
0
0
0
0
0
0
0
0
0
0
0
0
0
0
0
0
0
0
0
0
0
0
0
0
0
0
0
0
0
0
0
0
1
0
0
0
0
0
0
0
0
0
0
0
0
0
0
0
0
0
0
0
0
0
0
0
0
0
0
0
0
0
0
0
0
0
0
0
0
0
0
0
0
0
0
0
0
0
0
0
0
0
0
1
0
0
0
0
0
0
0
0
0
0
0
0
0
0
0
0
0
0
0
0
0
0
0
0
0
0
0
0
0
0
0
0
0
0
0
0
0
0
0
0
0
0
0
0
0
0
0
0
0
0
0
0
0
0
0
0
0
1
0
0
0
0
0
0
0
0
0
0
0
0
0
0
0
0
0
0
0
0
0
0
0
0
0
0
0
0
0
0
0
0
0
0
0
0
0
0
0
0
0
0
0
0
0
0
0
0
0
0
0
0
0
0
0
0
0
0
0
0
0
0
0
0
0
0
0
0
0
0
0
0
0
0
0
0
0
0
0
0
0
0
0
0
0
0
0
0
0
0
0
0
0
0
0
0
0
0
0
0
0
0
0
0
0
0
0
0
0
0
0
0
0
0
0
0
0
0
0
0
0
0
0
0
0
0
0
0
0
0
0
0
1
0
0
0
0
0
0
0
0
0
0
0
0
0
0
0
0
0
0
0
1
0
0
0
0
0
0
0
0
0
0
0
0
0
0
0
0
0
0
0
0
0
0
0
0
0
0
0
0
0
0
0
0
0
0
0
0
0
0
0
0
0
0
0
0
0
0
0
0
0
0
0
0
0
1
0
0
0
0
0
0
0
0
0
0
0
0
0
0
0
0
0
0
0
0
0
0
0
1
0
0
0
0
0
0
0
0
0
0
0
0
0
0
0
0
0
0
0
1
0
0
0
1
0
0
0
0
0
0
0
0
0
0
0
0
0
0
0
0
0
0
0
0
0
0
0
0
0
1
0
0
0
0
0
0
0
1
0
0
0
0
0
0
0
0
0
0
0
0
0
0
0
0
0
0
0
0
0
0
0
0
0
0
1
0
0
0
0
0
0
0
1
0
0
0
0
0
0
1
0
0
0
0
0
0
0
0
0
0
0
0
0
0
0
0
0
0
0
0
0
0
0
0
0
0
0
0
0
0
0
0
0
0
0
0
0
0
1
0
0
0
0
0
1
0
0
0
0
0
0
0
1
0
0
0
0
0
0
0
0
0
0
0
0
0
1
0
0
0
0
0
0
0
0
0
0
0
0
0
0
0
0
0
0
0
0
0
0
0
0
0
0
0
0
0
0
0
0
0
0
0
0
0
0
0
0
0
0
0
0
0
0
0
0
0
0
0
0
0
1
0
0
0
0
0
0
0
0
0
0
0
0
0
0
0
0
0
0
0
1
0
0
0
0
0
0
0
0
0
1
0
0
0
0
0
0
0
0
0
0
0
0
0
0
0
0
0
0
0
0
0
0
0
0
0
0
0
0
0
1
0
1
0
0
0
0
0
0
0
0
0
0
0
0
0
0
0
0
0
0
0
0
0
0
0
0
0
0
0
1
0
0
0
1
0
0
0
0
0
0
0
0
0
0
0
0
0
0
0
0
0
0
0
0
0
0
0
0
0
0
0
0
1
0
0
0
0
0
0
0
0
0
0
0
0
0
0
0
0
0
0
0
0
0
0
0
0
0
1
0
0
0
0
0
0
0
0
0
0
0
0
0
0
0
0
0
0
0
0
0
0
0
1
0
0
0
0
0
0
1
0
0
0
0
0
0
0
0
0
0
0
1
0
0
0
0
0
0
0
0
0
0
0
0
0
0
0
0
0
0
0
0
1
0
0
0
0
0
0
0
0
0
0
0
1
0
0
0
0
0
0
0
0
0
0
0
0
0
0
0
0
0
0
0
0
0
1
0
0
0
0
0
0
0
0
0
1
1
0
1
0
1
0
0
0
0
0
0
0
0
0
0
0
1
0
0
0
0
0
1
1
0
0
0
0
0
0
1
0
0
0
0
0
1
1
1
0
0
0
0
0
0
0
0
0
0
0
0
1
1
0
0
1
0
0
0
0
0
1
0
0
0
1
0
1
0
0
0
0
0
0
0
1
0
0
0
0
0
0
0
1
0
0
1
0
0
0
0
0
0
0
0
0
0
0
0
0
0
0
1
0
0
0
0
0
0
0
0
0
0
0
0
0
0
0
0
0
0
0
0
0
0
0
0
0
0
0
0
0
0
0
0
0
0
0
0
1
0
0
0
0
0
0
1
0
0
0
1
0
0
0
0
0
0
0
0
0
0
0
1
0
0
0
0
0
0
0
0
0
0
0
0
0
0
0
0
0
0
0
0
0
0
0
0
0
0
0
0
0
0
0
0
0
0
0
0
0
0
0
0
1
1
0
0
0
0
0
0
0
0
0
0
0
0
0
1
0
0
0
0
0
0
0
0
0
0
0
0
0
0
0
0
0
0
0
0
0
0
0
0
0
0
0
0
0
0
0
0
0
0
0
0
0
0
0
0
0
0
0
0
0
0
0
0
0
0
0
0
0
0
0
0
0
0
0
0
0
0
0
0
0
0
0
0
0
0
0
0
1
1
0
0
0
0
0
0
0
0
1
0
0
0
0
0
0
0
0
0
0
0
0
0
0
0
0
0
0
0
0
0
0
0
1
0
0
0
0
0
0
0
0
0
0
0
0
0
0
0
0
1
0
0
0
0
0
0
0
0
0
0
0
0
0
0
0
0
0
0
0
0
0
0
0
0
0
0
0
0
0
0
0
0
0
0
0
0
0
0
0
0
0
0
0
0
0
0
0
0
0
0
0
0
0
0
0
0
0
0
0
0
0
0
0
0
0
0
0
0
0
0
0
0
0
0
0
0
0
0
0
0
0
0
0
0
0
0
0
0
0
0
1
1
0
0
0
0
0
1
0
0
0
0
0
0
0
0
0
0
0
0
1
0
0
0
0
0
0
0
0
0
0
0
0
0
0
0
0
0
0
0
0
0
0
0
0
0
0
0
0
0
0
0
0
0
0
0
0
0
0
0
0
0
0
0
0
0
0
0
0
0
0
0
0
0
1
0
1
0
0
0
0
0
0
0
0
0
0
0
0
0
0
0
0
0
0
1
0
0
0
0
0
0
0
0
0
0
0
0
0
0
0
0
0
0
0
0
0
0
0
0
0
0
0
0
0
0
0
0
0
0
0
0
0
0
0
0
0
0
0
0
0
0
0
0
0
0
0
0
0
0
0
0
0
0
0
0
0
0
0
0
0
0
0
0
0
0
1
0
0
0
0
0
0
0
0
0
0
1
0
0
0
0
0
0
0
0
0
0
0
0
0
0
0
0
0
0
0
0
0
0
0
0
0
0
0
0
0
0
0
0
0
0
0
0
0
1
0
0
0
0
0
0
0
0
0
0
0
0
0
0
0
0
0
0
0
0
0
0
0
0
0
0
0
0
0
0
0
0
0
0
0
0
0
0
0
0
0
0
0
0
0
0
0
0
0
0
0
0
0
0
0
0
0
0
0
0
0
0
0
0
0
0
0
0
0
0
0
0
0
0
0
0
0
0
0
0
0
1
0
0
0
0
0
0
0
0
0
0
0
0
0
0
0
0
0
0
0
0
0
0
0
0
0
0
0
0
0
0
0
0
0
0
0
0
0
0
0
0
0
0
0
0
0
0
0
0
0
0
0
0
0
0
0
0
0
0
0
0
0
0
0
0
0
0
0
0
0
0
0
0
0
0
0
0
0
0
0
0
0
0
0
0
0
0
0
0
0
0
0
0
0
0
0
0
0
0
0
0
0
0
0
0
0
0
0
0
0
0
0
0
0
0
0
0
0
0
0
0
0
0
0
1
0
0
0
0
0
0
0
0
0
0
0
0
0
0
0
0
0
0
0
0
0
0
0
0
0
0
0
0
0
0
0
0
0
0
0
0
0
0
0
0
0
0
0
0
0
0
0
0
0
0
0
0
0
0
0
0
0
0
0
0
0
0
0
0
0
0
0
0
0
0
0
0
0
0
0
0
0
0
0
0
0
1
0
0
0
0
0
0
0
1
0
0
0
0
0
0
0
0
0
0
0
0
0
0
0
0
0
0
0
0
0
0
0
0
0
0
0
0
0
0
0
0
0
0
0
0
0
1
0
0
0
0
0
0
0
0
0
0
0
0
0
0
0
0
0
0
0
0
0
1
0
0
0
0
0
0
0
0
0
0
0
0
1
1
0
0
0
0
0
0
0
0
0
0
0
0
0
0
0
1
1
0
1
0
0
0
0
0
0
0
0
0
1
0
0
0
0
0
0
1
0
0
0
0
0
0
0
0
0
0
1
0
0
0
0
1
0
1
0
0
0
0
0
0
0
1
0
0
0
1
0
0
0
1
0
1
1
0
0
1
1
0
0
0
1
0
0
0
1
0
0
0
0
0
0
0
0
0
1
0
0
0
0
0
0
1
0
0
0
0
0
0
0
0
0
0
0
0
0
0
0
0
0
0
0
0
0
0
0
0
0
0
0
1
0
0
1
0
0
0
0
0
0
0
0
0
0
0
0
0
0
0
0
0
0
1
0
0
1
0
0
0
0
0
0
0
0
0
0
0
1
0
0
1
0
0
0
0
0
0
0
0
0
0
0
1
1
0
0
0
0
0
0
0
0
0
0
0
0
1
0
0
0
0
0
0
0
0
0
0
0
0
0
0
0
0
0
1
0
0
0
0
0
0
0
0
0
0
0
0
0
0
0
0
0
1
0
0
0
0
0
0
0
0
0
0
0
0
0
0
0
0
0
0
0
0
0
0
0
0
0
0
0
0
0
0
0
0
0
0
0
0
0
0
0
0
1
0
0
0
0
0
0
0
0
0
0
0
0
0
0
0
0
0
0
0
0
0
0
0
0
0
0
0
0
0
0
0
0
0
0
0
0
0
0
0
0
0
0
0
0
0
1
0
0
0
0
0
0
0
0
0
0
0
0
0
0
0
0
0
0
0
0
0
0
0
0
0
0
0
0
0
0
0
0
0
0
0
0
0
0
0
0
0
0
0
0
0
0
0
1
0
0
0
0
0
0
0
0
0
0
1
0
0
0
0
0
0
0
0
0
0
0
0
0
0
0
1
0
0
1
0
0
0
0
0
0
0
0
0
0
0
0
0
0
0
0
0
0
0
0
0
0
0
1
0
0
0
0
0
0
0
0
0
0
0
0
0
0
0
0
0
0
0
0
0
0
0
0
0
0
0
0
0
0
0
0
0
0
0
1
0
0
0
0
0
0
0
0
0
0
0
0
0
0
0
0
0
0
0
0
0
0
0
0
0
0
0
0
0
0
0
0
0
0
0
0
0
0
0
0
0
0
0
0
0
0
0
0
0
0
0
0
0
0
0
0
0
0
0
0
0
0
0
0
0
0
0
0
0
0
0
0
0
0
0
0
1
0
0
0
0
0
0
0
0
0
0
0
0
0
0
0
0
0
0
0
0
0
0
0
0
0
0
0
0
0
0
0
0
0
0
0
0
0
0
0
1
0
0
0
0
0
0
0
0
0
0
0
0
1
1
0
0
0
0
0
0
0
0
0
0
0
0
0
0
0
0
0
0
0
0
0
0
0
0
0
0
0
0
0
0
0
0
0
0
0
0
0
0
0
0
0
0
0
0
0
0
0
0
0
0
0
0
0
0
0
0
0
0
0
0
0
0
0
0
0
0
0
0
0
0
0
0
0
0
0
0
0
0
0
0
0
0
0
0
0
0
0
0
0
0
0
0
0
0
0
0
0
0
0
0
0
1
0
1
0
0
0
0
0
0
0
1
1
1
1
0
0
0
0
0
0
0
0
0
0
0
0
0
0
0
0
0
0
0
0
0
0
0
0
0
0
0
0
1
1
0
0
0
0
0
0
0
0
0
0
0
0
0
0
0
0
0
0
1
0
0
0
0
0
0
0
1
1
0
1
1
0
0
1
0
0
0
0
0
0
0
1
0
1
0
0
0
0
0
0
0
0
0
0
0
0
0
0
0
0
0
0
0
0
0
0
0
0
0
0
0
1
1
0
0
0
1
1
0
0
0
0
1
0
0
1
0
1
0
0
0
0
0
1
0
0
0
1
0
0
0
0
0
0
0
0
0
0
0
0
0
0
0
0
0
0
0
0
0
0
0
0
0
0
0
1
0
0
0
0
0
0
1
0
0
0
0
0
0
0
0
0
0
0
0
0
0
0
0
0
0
0
0
0
0
0
0
0
0
0
0
0
1
0
1
0
0
0
0
0
0
0
1
0
0
0
0
0
0
0
0
0
0
0
1
0
0
0
0
0
0
0
0
0
1
0
0
0
0
0
0
0
1
0
0
0
0
0
0
0
1
0
0
0
0
0
0
0
0
0
0
0
0
0
0
0
0
0
0
0
1
0
1
0
0
0
0
0
1
0
0
0
0
0
0
0
0
0
0
0
0
0
0
0
0
0
0
0
0
0
0
0
0
0
1
0
1
0
0
0
0
0
0
0
0
0
1
0
0
0
0
0
1
0
0
0
0
0
0
0
0
0
0
0
0
0
0
0
1
0
0
0
0
0
0
0
0
1
0
0
0
0
0
0
0
0
0
0
0
0
0
0
0
0
0
0
0
0
0
0
0
0
0
0
0
0
0
0
1
0
0
0
0
0
0
0
0
0
0
0
0
0
0
0
0
1
0
0
0
0
0
0
0
0
1
0
0
0
0
0
0
0
0
0
1
0
0
0
0
0
1
0
0
0
0
0
0
0
0
0
0
0
0
0
0
0
0
0
0
0
1
0
0
0
0
0
0
1
0
0
0
0
0
0
0
0
1
0
0
0
0
0
0
0
0
0
0
0
0
0
0
1
0
0
1
0
0
0
1
0
0
0
0
0
0
0
0
0
0
0
0
0
0
0
0
1
0
0
0
0
0
0
0
0
0
0
1
0
1
0
0
0
0
0
0
1
0
0
0
0
0
0
0
0
0
0
0
0
0
0
0
0
0
0
0
0
0
0
0
0
0
0
0
1
1
0
0
0
0
0
0
1
0
0
0
0
0
0
0
0
0
0
0
0
0
1
0
0
0
0
0
0
0
1
0
0
0
0
0
0
0
0
0
0
0
0
0
0
0
0
0
0
0
0
0
0
0
0
0
0
0
1
0
0
0
0
0
0
0
0
0
0
1
0
0
1
0
0
0
0
0
0
0
0
0
0
0
0
0
0
0
0
0
0
0
0
0
0
0
0
0
0
0
0
0
1
0
0
0
0
0
0
0
1
0
0
0
0
0
0
0
1
0
0
0
0
1
0
0
0
0
0
0
0
0
0
0
0
1
0
1
0
0
0
1
0
				</DataArray>
				<DataArray type="Float64" Name="h" NumberOfComponents="1" Format="ascii">
1.2467196658
1.2467348211
1.2450739671
1.2471136937
1.2444824568
1.2453645042
1.2456832385
1.2485955048
1.2467632554
1.2517884266
1.2482543753
1.2457127128
1.2476940420
1.2494922303
1.2481236691
1.2498300405
1.2466300465
1.2507054516
1.2466940565
1.2485674419
1.2451249311
1.2465194538
1.2442297390
1.2442880824
1.2475521968
1.2514761389
1.2432027069
1.2395884270
1.2436082172
1.2507329557
1.2497627479
1.2443437031
1.2464464281
1.2455474338
1.2443156380
1.2433613892
1.2448283933
1.2425295247
1.2384205841
1.2443930981
1.2437145628
1.2412150771
1.2434912481
1.2421113857
1.2435762143
1.2403758404
1.2427498563
1.2447856783
1.2515716652
1.2479112351
1.2449672954
1.2421053634
1.2424505401
1.2425745189
1.2425566607
1.2411360044
1.2412105987
1.2456117267
1.2451406831
1.2435483603
1.2481946215
1.2477704623
1.2507307422
1.2425778000
1.2405455689
1.2390682045
1.2446229102
1.2472788224
1.2472330981
1.2470391914
1.2454904639
1.2433760168
1.2402705772
1.2435098335
1.2444308932
1.2340835790
1.2451729430
1.2474546161
1.2450118281
1.2366446345
1.2504730895
1.2396336660
1.2613283460
1.2441460404
1.2356676168
1.2359011196
1.2517862412
1.2410935144
1.2472225292
1.2571285512
1.2518010223
1.2353333387
1.2486374874
1.2529367487
1.2379389274
1.2371472807
1.2386107422
1.2364288239
1.2373810577
1.2514028699
1.2589542785
1.2509956838
1.2401519231
1.2457708151
1.2552596650
1.2417945507
1.2356871403
1.2538601352
1.2468097171
1.2391740293
1.2506752668
1.2547387915
1.2499295293
1.2513245641
1.2424522586
1.2599412188
1.2414239634
1.2538619397
1.2562090526
1.2450861198
1.2548540608
1.2400430132
1.2331767325
1.2576597160
1.2493944564
1.2555829064
1.2437414596
1.2589084698
1.2584855712
1.2602138925
1.2559535883
1.2372465784
1.2464146550
1.2607435043
1.2537885754
1.2550619108
1.2536494614
1.2622453709
1.2538094323
1.2472075875
1.2600338000
1.2557096614
1.2579940610
1.2438553411
1.2348256884
1.2543706740
1.2503563017
1.2675555937
1.2570246327
1.2705935684
1.2547570420
1.2628261182
1.2642425101
1.2705043125
1.2523517149
1.2637443962
1.2676146510
1.2573050383
1.2698781491
1.2635162111
1.2449671711
1.2670380428
1.2513306735
1.2607520914
1.2583407978
1.2638440185
1.2405169824
1.2484762605
1.2606482702
1.2653425399
1.2662038156
1.2634513484
1.2695349220
1.2581779969
1.2381602943
1.2734156989
1.2414941838
1.2686794470
1.2722932519
1.2611885622
1.2628435239
1.2351454861
1.2638121385
1.2319111647
1.2639326603
1.2656742358
1.2374613441
1.2719133005
1.2619401139
1.2669052657
1.2325220638
1.2716628515
1.2656778442
1.2347817391
1.2731148247
1.2669048010
1.2598462835
1.2304276754
1.2324874441
1.2731318407
1.2671233487
1.2328363503
1.2661725329
1.2724800499
1.2290027829
1.2632359863
1.2478995365
1.2546016390
1.2307825368
1.2406667307
1.2307972165
1.2655609873
1.2613898148
1.2645528192
1.2513366646
1.2283304878
1.2443129419
1.2607687643
1.2337659811
1.2647804946
1.2297536610
1.2536313158
1.2370920239
1.2455618977
1.2318117709
1.2715173577
1.2621158725
1.2386118703
1.2282748662
1.2579188045
1.2722258048
1.2494661419
1.2352737353
1.2729176383
1.2691702224
1.2419361769
1.2281840862
1.2445330301
1.2659547574
1.2366092488
1.2257319598
1.2517773104
1.2609541439
1.2379344028
1.2524175689
1.2454459416
1.2621066995
1.2310203965
1.2482866239
1.2581952335
1.2406063300
1.2289889779
1.2591729075
1.2259739773
1.2231208637
1.2623663514
1.2416806651
1.2490283241
1.2645616016
1.2475993208
1.2326793725
1.2281681639
1.2360005422
1.2437429232
1.2329601003
1.2676533763
1.2704461717
1.2254972285
1.2723531084
1.2522023602
1.2608280593
1.2343292310
1.2559938549
1.2399502611
1.2436868269
1.2238600712
1.2321777794
1.2397843371
1.2478927985
1.2293349653
1.2602322428
1.2719809997
1.2703975844
1.2679910327
1.2565772932
1.2517247729
1.2364586360
1.2403000380
1.2594812188
1.2579224479
1.2416678095
1.2227349983
1.2481812068
1.2493343047
1.2315156922
1.2195071749
1.2334259162
1.2443955212
1.2549216206
1.2623739904
1.2593944615
1.2456187581
1.2257914223
1.2168593962
1.2204685881
1.2359686940
1.2230206124
1.2375587788
1.2562882312
1.2239198678
1.2374751151
1.2329714072
1.2712212782
1.2204416973
1.2592267098
1.2457622770
1.2271181526
1.2545218998
1.2690732709
1.2294305426
1.2414861770
1.2294625880
1.2503954819
1.2663684226
1.2286049244
1.2335094083
1.2372046823
1.2691801426
1.2415413151
1.2501127877
1.2588436198
1.2665267742
1.2707143227
1.2187625350
1.2458942772
1.2251532975
1.2548941900
1.2370309895
1.2631577194
1.2253234948
1.2122742871
1.2278423356
1.2561557923
1.2162050429
1.2438378268
1.2351874645
1.2454220656
1.2542035556
1.2541585778
1.2124292956
1.2098223480
1.2344378061
1.2413742602
1.2527624082
1.2574508033
1.2303402391
1.2147704586
1.2159164930
1.2324683404
1.2392506692
1.2447331253
1.2609857815
1.2594004118
1.2194074383
1.2140517081
1.2397108656
1.1998832209
1.2061846376
1.2238787386
1.2557156790
1.2256239822
1.2464047805
1.2510045371
1.2674113642
1.2434932039
1.2388208091
1.2647893592
1.2345146709
1.2572810848
1.2192073986
1.2148042293
1.2526631786
1.2697911881
1.2203975577
1.2481860224
1.2233899649
1.2254530921
1.2345560663
1.2295147397
1.1985872109
1.2691522772
1.2132734384
1.2389872588
1.1900874006
1.2647642865
1.2434832860
1.2301408221
1.2176347829
1.2115442255
1.1870242250
1.2245847478
1.2571069373
1.1888791988
1.2480776235
1.1875069753
1.2676711932
1.2528369924
1.2203935459
1.2301064075
1.1929217653
1.2341990128
1.2061799211
1.2427961971
1.2090480844
1.2315010652
1.2580910295
1.2525053591
1.2211895055
1.2396238964
1.2165836920
1.1979076914
1.1938651202
1.2407783442
1.2496325046
1.2584707759
1.2327296319
1.2637610769
1.2521971259
1.2413758995
1.2088846937
1.2183174081
1.2574548541
1.2309038690
1.2510527199
1.2202651334
1.2291996445
1.2390079937
1.2477487210
1.2606836845
1.1972660447
1.2067977724
1.2191610834
1.2363346934
1.2319073203
1.2026345464
1.2263793124
1.2222983980
1.2099857098
1.2377747698
1.2377627977
1.2273587855
1.2660568225
1.2557197483
1.2103915992
1.2120309669
1.1938631899
1.2543482465
1.2475825640
1.2170767726
1.2506313572
1.2486105935
1.2071420440
1.2251490597
1.2680704796
1.2162695132
1.2408200021
1.2276168148
1.2210676945
1.1862204078
1.2354758950
1.2628979735
1.2136778775
1.2504035119
1.2041631079
1.2090417824
1.2312331224
1.2476355370
1.1915922927
1.2476848313
1.2318877879
1.2277302169
1.2004918279
1.2305561397
1.2658662657
1.2313321284
1.2397435089
1.2549968264
1.2231204004
1.2360294855
1.2118979170
1.2056600804
1.2153156507
1.2462017357
1.2439104191
1.2301420113
1.2050236119
1.2194140449
1.2398287537
1.2456318302
1.2221282410
1.2185599122
1.2303014947
1.1972201213
1.2115448087
1.1870227814
1.2084117605
1.2263120070
1.2514279993
1.2012927980
1.2088602348
1.2231194768
1.2014263630
1.2166697057
1.2136808144
1.1975273939
1.2476860013
1.2239778835
1.2021831718
1.2450978222
1.2103504195
1.2014258897
1.2119342540
1.2061836723
1.2625920752
1.2225887508
1.2339944947
1.2174252087
1.2144994608
1.1930095924
1.1971156186
1.2325534215
1.2251510862
1.2221945998
1.2332525214
1.2354759061
1.1867269583
1.2439104751
1.2194168611
1.2514305564
1.1930084502
1.2004903872
1.1868803207
1.2032524177
1.2486993319
1.1928721275
1.2165077585
1.2241068501
1.2041640412
1.1890423227
1.2081461406
1.2539658494
1.1978678728
1.2282258621
1.1906329303
1.2415444495
1.1938845383
1.1962210764
1.2121806767
1.2428226644
1.2517819296
1.2000419719
1.2164812222
1.2475721708
1.2305570901
1.1880649425
1.2477530053
1.2084139954
1.2276129917
1.2121509438
1.2660451189
1.2046490807
1.2094656517
1.2255582466
1.2126394500
1.2165778643
1.2399333190
1.2038351791
1.2017391477
1.2166657472
1.1930429857
1.2091013161
1.2377774893
1.2185562775
1.2114011101
1.2054318425
1.2273603985
1.2606739226
1.2428009320
1.2222929054
1.2079307886
1.2637492404
1.1880105155
1.2035539640
1.1886512811
1.2075417782
1.2103868543
1.1911223492
1.2436766175
1.2458657033
1.1875687881
1.1889166821
1.1970853323
1.2439977293
1.2156556545
1.2327287811
1.2035588909
1.1921755108
1.2339983963
1.2525055138
1.1974974555
1.1956254741
1.2320957582
1.2294232143
1.2064014947
1.2017384698
1.2218529901
1.2116771187
1.2332534128
1.2046503305
1.1971155187
1.2225903079
1.2563749397
1.1976570848
1.2362168986
1.2450992387
1.2026822030
1.2018119879
1.2272103043
1.2415451409
1.2087061575
1.1921753244
1.2065729534
1.2060996502
1.1962201491
1.2103520048
1.2000426367
1.2282271435
1.2200686043
1.2308272263
1.2168484850
1.2086734637
1.2487019274
1.1972261283
1.1895125548
1.1906965263
1.2485222564
1.2248698310
1.1906323665
1.1998934346
1.2383990583
1.1991600158
1.2047107692
1.2374225143
1.2236660803
1.1914154522
1.1936969013
1.1899807338
1.2165094302
1.2167990355
1.2112881340
1.2414361702
1.2287989540
1.2136963021
1.2235704287
1.2342469824
1.2138059114
1.1935916351
1.1986001887
1.2333065715
1.2178997533
1.2391583577
1.2398624400
1.1867261159
1.2018203966
1.1883697182
1.2086162719
1.2190283864
1.2087982342
1.2082126961
1.2325170849
1.2293400276
1.1892698204
1.1935376797
1.2209629892
1.1989593638
1.2053814287
1.2053389232
1.2237998940
1.2319110458
1.2262323538
1.2038647820
1.2069455775
1.2006546914
1.2054980107
1.2083312180
1.2237121192
1.2253620347
1.2203194104
1.2220270461
1.1904497708
1.2269105450
1.2281528330
1.2000020915
1.2308330153
1.2280018052
1.1974983510
1.2288573444
1.1978677659
1.2309398690
1.2113374007
1.2079695558
1.2293345529
1.2064021609
1.2295283231
1.2358707912
1.2164819941
1.2373243204
1.2140641624
1.2103315965
1.2357788816
1.2418707969
1.2269353201
1.2456811319
1.2455482642
1.2455583165
1.2456937206
1.2465047688
1.2457084038
1.2482454886
1.2476679838
1.2447133999
1.2453582114
1.2444881132
1.2447232738
1.2467720532
1.2481107974
1.2456759444
1.2503281088
1.2476793091
1.2465113748
1.2493058795
1.2506944336
1.2471218938
1.2450783979
1.2466778493
1.2507236593
1.2499208442
1.2460196520
1.2486069176
1.2514711597
1.2475457783
1.2517992905
1.2484432345
1.2477100694
1.2449615098
1.2476733326
1.2452019527
1.2503390928
1.2497554540
1.2493199705
1.2455445209
1.2464294598
1.2443296345
1.2443072636
1.2443898775
1.2378174454
1.2466339510
1.2498415134
1.2434750576
1.2384119065
1.2460231358
1.2499320429
1.2437053290
1.2495013033
1.2485739068
1.2449652190
1.2442456274
1.2441134932
1.2465349183
1.2444416668
1.2484586658
1.2451280647
1.2452211375
1.2452848753
1.2396592257
1.2447842923
1.2476860809
1.2435730676
1.2449642345
1.2427338446
1.2395910704
1.2442922783
1.2436203334
1.2412055113
1.2386834513
1.2432221832
1.2441047747
1.2520773567
1.2378239867
1.2420895213
1.2450574179
1.2443249007
1.2424392056
1.2441139675
1.2499608901
1.2487145089
1.2453017381
1.2444445189
1.2438482786
1.2396629780
1.2433665570
1.2405351589
1.2425445255
1.2433679522
1.2443172138
1.2507271282
1.2472727784
1.2406727700
1.2448314470
1.2425740751
1.2420897855
1.2443994507
1.2442564640
1.2421234929
1.2435099637
1.2426045650
1.2433744170
1.2402523068
1.2464056642
1.2377307743
1.2401240165
1.2441069307
1.2487812439
1.2450601680
1.2412187639
1.2451726406
1.2454902837
1.2446315049
1.2444311323
1.2386945385
1.2407657983
1.2472322065
1.2448340685
1.2520880377
1.2470372823
1.2438507791
1.2433678651
1.2380368860
1.2406737214
1.2455408037
1.2432008741
1.2464348729
1.2515760890
1.2421128609
1.2487200458
1.2403829958
1.2396373661
1.2441395273
1.2410309425
1.2499692439
1.2479207266
1.2481952143
1.2477719691
1.2407791311
1.2492546865
1.2446318093
1.2451408842
1.2436357134
1.2426014074
1.2339047013
1.2383320847
1.2443993484
1.2448367881
1.2422950938
1.2425584783
1.2467253091
1.2464063803
1.2487828590
1.2411542244
1.2407228565
1.2452537383
1.2377476763
1.2425692593
1.2442558978
1.2435461298
1.2353259762
1.2456126598
1.2401344286
1.2486372345
1.2455424597
1.2457685523
1.2373745317
1.2410260101
1.2359432650
1.2431993551
1.2509947507
1.2434626895
1.2499126001
1.2427420018
1.2390703662
1.2589623463
1.2446349319
1.2451851249
1.2364221842
1.2497828106
1.2371432365
1.2420200134
1.2464504109
1.2514030041
1.2417811949
1.2380418998
1.2631225535
1.2407167378
1.2468095520
1.2547370262
1.2492557011
1.2452541261
1.2499275362
1.2422923876
1.2340950419
1.2489504158
1.2436342333
1.2474552647
1.2383483296
1.2524859079
1.2339154718
1.2506622608
1.2391768488
1.2467255229
1.2499134694
1.2631084746
1.2414631675
1.2497837634
1.2359086369
1.2400394413
1.2459529029
1.2451873274
1.2541649033
1.2420153523
1.2427431499
1.2356801048
1.2366518684
1.2517864842
1.2613120349
1.2504732320
1.2414286984
1.2450127677
1.2434822125
1.2548464176
1.2411012955
1.2359569704
1.2524856545
1.2372424423
1.2469051047
1.2543193907
1.2555839847
1.2486683528
1.2525642627
1.2472229007
1.2379404845
1.2529465121
1.2585843812
1.2571233166
1.2518006799
1.2545404879
1.2462400363
1.2493898876
1.2437427606
1.2489735532
1.2602185847
1.2401514119
1.2597437816
1.2453221908
1.2414581022
1.2541716342
1.2459524207
1.2522288835
1.2537809168
1.2550636372
1.2464144869
1.2552666377
1.2386191237
1.2348163468
1.2435066226
1.2557025260
1.2480279398
1.2543241119
1.2585789562
1.2513262343
1.2538599669
1.2529288804
1.2462418712
1.2525655897
1.2424509781
1.2570179963
1.2469269114
1.2579968773
1.2589024922
1.2599368332
1.2486695773
1.2543721907
1.2545394262
1.2356962379
1.2558003038
1.2325721709
1.2420734405
1.2643635591
1.2597379253
1.2522327420
1.2566603039
1.2604987044
1.2579757074
1.2533660199
1.2450853690
1.2453532280
1.2628277029
1.2538696978
1.2549208476
1.2562081633
1.2524815677
1.2547563595
1.2642465123
1.2523515228
1.2529340859
1.2589098347
1.2484714267
1.2583355144
1.2480320048
1.2683688603
1.2558069667
1.2598858006
1.2694463538
1.2408807914
1.2435333496
1.2576671072
1.2584834617
1.2449567448
1.2567970395
1.2331876760
1.2559522316
1.2525317984
1.2513281719
1.2567388506
1.2670461395
1.2589151201
1.2698829982
1.2533653948
1.2536545526
1.2607416004
1.2656472208
1.2389666207
1.2579683435
1.2619597831
1.2622413776
1.2695371968
1.2512418465
1.2565808853
1.2538093519
1.2524894449
1.2421027328
1.2566608594
1.2643606419
1.2325822761
1.2549199338
1.2653498959
1.2571185202
1.2604960139
1.2662058512
1.2581750298
1.2705880837
1.2638049004
1.2380070914
1.2568035338
1.2598919131
1.2621410277
1.2675308997
1.2705907953
1.2438703439
1.2675465348
1.2503606961
1.2611838715
1.2694379253
1.2525388778
1.2408994180
1.2628470426
1.2600391513
1.2628522118
1.2567373174
1.2414800773
1.2554699785
1.2472181005
1.2683630745
1.2623063748
1.2619323671
1.2637369390
1.2676114495
1.2565805561
1.2359181980
1.2656419226
1.2543710917
1.2512483623
1.2389864415
1.2639231790
1.2619542938
1.2705038378
1.2573082963
1.2571175049
1.2374432711
1.2348280475
1.2731152677
1.2405342698
1.2623130224
1.2621294685
1.2669191847
1.2628527398
1.2705875504
1.2554694879
1.2660355170
1.2642300173
1.2675260179
1.2380215638
1.2614747362
1.2716636137
1.2590514589
1.2607568071
1.2638343255
1.2347647103
1.2700486989
1.2635236411
1.2328242896
1.2734925057
1.2634600699
1.2661628551
1.2381759732
1.2724826603
1.2359347568
1.2606562342
1.2671129941
1.2543777239
1.2324734620
1.2734243494
1.2722922942
1.2600474485
1.2642383951
1.2614816881
1.2655518299
1.2700393532
1.2660233023
1.2626135872
1.2652622631
1.2351609414
1.2590503128
1.2734156512
1.2348404324
1.2666558191
1.2668582951
1.2686646268
1.2613857128
1.2307718117
1.2325363160
1.2722303870
1.2734918121
1.2669154796
1.2734228360
1.2718504638
1.2734344242
1.2319226851
1.2656838549
1.2719106908
1.2297451801
1.2621008353
1.2454422459
1.2582413562
1.2524194088
1.2304394967
1.2668684365
1.2265420608
1.2650804547
1.2379212903
1.2578162173
1.2600498903
1.2281716990
1.2656868563
1.2662924467
1.2652430282
1.2598492039
1.2651792882
1.2490282989
1.2558617518
1.2259658494
1.2416717518
1.2591704870
1.2310054488
1.2666658013
1.2659452597
1.2626194144
1.2713131814
1.2245186150
1.2290121354
1.2718456293
1.2516999554
1.2343140404
1.2734326499
1.2436473411
1.2293289162
1.2704108746
1.2602451918
1.2659540872
1.2364353116
1.2254974107
1.2559882977
1.2731285382
1.2475618459
1.2329457893
1.2723589006
1.2642220352
1.2676747501
1.2399177538
1.2308130114
1.2416649848
1.2550866722
1.2647885686
1.2334144156
1.2227276795
1.2578169702
1.2265504436
1.2582424005
1.2639656626
1.2213388384
1.2493375416
1.2594768849
1.2650886697
1.2406800059
1.2546013345
1.2479029533
1.2632428647
1.2337835359
1.2456199529
1.2562875206
1.2663022139
1.2375510557
1.2257798648
1.2607727141
1.2283424457
1.2204667919
1.2528812672
1.2633437148
1.2443216283
1.2558612456
1.2513376715
1.2651884238
1.2494934241
1.2294175674
1.2191414701
1.2251575744
1.2334935855
1.2415030006
1.2352925477
1.2641992311
1.2691549091
1.2691974054
1.2282809587
1.2729138389
1.2647132360
1.2500781136
1.2588469270
1.2371085633
1.2713048101
1.2579146373
1.2419681763
1.2455968552
1.2204502423
1.2294582783
1.2374469235
1.2457205175
1.2318232830
1.2620986741
1.2659333797
1.2712302423
1.2245225444
1.2715100836
1.2663914496
1.2545043597
1.2628848343
1.2536440442
1.2386365674
1.2370285632
1.2516700112
1.2609596192
1.2639727538
1.2561530390
1.2445350725
1.2257436757
1.2152816116
1.2454251516
1.2213400127
1.2517749492
1.2278336552
1.2162026469
1.2366207113
1.2550856454
1.2413753152
1.2527629355
1.2633519383
1.2607210506
1.2482853888
1.2290035792
1.2140539445
1.2492014086
1.2231274382
1.2528789031
1.2324621916
1.2194007304
1.2406132342
1.2581972993
1.2204032234
1.2398176367
1.2301025766
1.2719748813
1.2238563660
1.2571021336
1.2479307737
1.2233809517
1.2565836174
1.2628660269
1.2631780362
1.2676888321
1.2130968548
1.2326937691
1.2389606937
1.2321906351
1.2480453810
1.2679706302
1.2254582479
1.2360241433
1.2345406472
1.2704347230
1.2191380511
1.2612273432
1.2437829589
1.2522278031
1.2608158519
1.2648082604
1.2698027373
1.2148134545
1.2434597922
1.2281712680
1.2526415598
1.2646909982
1.2580992197
1.2183229513
1.2087629371
1.2396271178
1.2403014328
1.2516677839
1.2613020279
1.2536251031
1.2211840180
1.2122142668
1.2088843701
1.2315245008
1.2340463466
1.2496362804
1.2605050538
1.2579264035
1.2195134867
1.2152787384
1.2407799996
1.2314988445
1.2481780826
1.2061832352
1.2006173256
1.2292052385
1.2521955311
1.2234677092
1.2443454263
1.2475767095
1.2565670000
1.2160144755
1.2071439604
1.2375084169
1.2443937818
1.2549221886
1.2637002755
1.2551469736
1.2263749599
1.2179679253
1.2120279271
1.2359740643
1.2361787689
1.2475552284
1.2626027381
1.2607280351
1.2230304248
1.2168606063
1.2448433957
1.2363347522
1.2491985467
1.2033781197
1.2032499032
1.2271759661
1.2573395896
1.2287943875
1.2491955771
1.2486112402
1.1961062066
1.2658811449
1.2068924332
1.2459317804
1.1873408400
1.2613242048
1.2360187357
1.2665061143
1.2318865435
1.2289525425
1.2153334369
1.2549911760
1.2118974289
1.1867043403
1.2153238647
1.2612164494
1.2187527549
1.1880455451
1.2549092938
1.1892385212
1.2707059397
1.2162644665
1.2456122351
1.2271287280
1.2286067906
1.2372301519
1.1945065448
1.2263159147
1.1972203981
1.2680828529
1.2090467175
1.2415209239
1.1889180073
1.2629110301
1.2408026437
1.2631610703
1.2359130179
1.2327300142
1.2155012798
1.2592313285
1.2098976918
1.1855103039
1.2210752300
1.2592234390
1.2130915155
1.1875697143
1.2504260897
1.1862217149
1.2690584359
1.2503881912
1.2239134089
1.2329848962
1.1915929156
1.2312303917
1.2098410970
1.2370114130
1.2455782860
1.2591287730
1.2021851734
1.2122104910
1.2119378770
1.2168412769
1.2351889199
1.2602439746
1.2268019466
1.2549692137
1.2602536292
1.1977375840
1.2253292694
1.2425875185
1.2202827546
1.2006151807
1.2217725388
1.1970760506
1.2072681092
1.2438356611
1.2522718077
1.2604936036
1.2357645911
1.2428320385
1.2425877489
1.2325615884
1.2654480913
1.2542061635
1.2079277613
1.2443392393
1.2122769130
1.1998809770
1.1979099173
1.2539780927
1.2517926617
1.2217662941
1.2222007108
1.2552606372
1.2340402680
1.2536159549
1.2465691166
1.2475747105
1.2087614698
1.2234618179
1.2323769327
1.2584818311
1.2124256355
1.2419629042
1.2503913525
1.2413836482
1.2626825668
1.1987015594
1.2061816196
1.2092078562
1.2217706496
1.2397100538
1.2612904600
1.2289513784
1.2568816244
1.2017734002
1.2303441480
1.2447298862
1.2257199557
1.1948064286
1.1948082274
1.2119895786
1.2448414875
1.2541512722
1.2574420035
1.2406782193
1.2408010623
1.2304166682
1.2672938500
1.2573450406
1.2143468247
1.2202706006
1.2392451097
1.2159218000
1.1970743412
1.2563873700
1.2502868048
1.2238735528
1.2199372907
1.2578755518
1.2287878555
1.2491893761
1.2480542981
1.2510043708
1.2098220085
1.2179623654
1.2344336297
1.2292228040
1.2691422958
1.2294301088
1.2440085208
1.2592258637
1.2204039659
1.2277312731
1.2435095638
1.2098980419
1.2094676590
1.2308169486
1.2245785677
1.1875054019
1.2458772064
1.2428727724
1.2289536720
1.2388250182
1.2647480032
1.2004019930
1.2181423861
1.2384084390
1.2528525516
1.2206779058
1.2163572703
1.2350949193
1.1961059155
1.2176355499
1.1874029375
1.1874013943
1.2080155109
1.2132648155
1.2342107262
1.2500891659
1.1929211453
1.1858835266
1.2498922893
1.2345159977
1.2038385088
1.2053487901
1.2251798982
1.2169359692
1.2026347855
1.2262000445
1.2209896352
1.2342749472
1.2673959937
1.2340065409
1.2425524801
1.2572833626
1.2264466337
1.2388418292
1.2155019385
1.2060351033
1.2191976721
1.1858823189
1.2485345503
1.2465130177
1.2327312808
1.2398960026
1.2613144552
1.2035538954
1.2237694705
1.2424266700
1.2482105913
1.2251809437
1.2204849982
1.2331425186
1.1985871129
1.2153341916
1.1855090988
1.2023543993
1.2127255185
1.2068898091
1.2295163196
1.2504245698
1.1945061320
1.2532928483
1.2359144132
1.2210841618
1.2024843265
1.2089423352
1.2307000300
1.2206770421
1.2045209957
1.2187702581
1.1868343184
1.2428720569
1.2181456588
1.1977363123
1.2498940141
1.2267947304
1.1972645182
1.2024832969
1.1903066666
1.2041275810
1.2065089780
1.2427254474
1.1980167517
1.2542473495
1.2058558849
1.2146299904
1.2232663466
1.2045220055
1.1863159805
1.2146259689
1.2271703994
1.2072656396
1.2058013035
1.2522755421
1.2636893411
1.1975283182
1.2033760812
1.2542363141
1.1945153637
1.2182356752
1.2370021788
1.2475553435
1.1937580976
1.2202835181
1.2098446110
1.2376558592
1.2168366025
1.2256176215
1.1936868196
1.1907061581
1.2510619081
1.1973118487
1.2108541151
1.2631464387
1.2437590065
1.2032471414
1.2356455348
1.2516187410
1.1947999295
1.2154971269
1.2356369993
1.2457332810
1.2292244606
1.1877677092
1.2251774649
1.2296746395
1.2388245944
1.2463966276
1.1867957650
1.2465130503
1.2237721337
1.1937140774
1.2532967203
1.2217646774
1.1936853936
1.2145035115
1.2026343815
1.1873174663
1.2067951748
1.2038147004
1.2466348696
1.1935378938
1.2119574640
1.2208489685
1.2080179005
1.1896566709
1.2090516525
1.2170720288
1.2026327637
1.2079690887
1.2609741629
1.2340031203
1.2552485666
1.1990057116
1.2242435072
1.2318990866
1.1907618393
1.2176759702
1.2387618790
1.2119861151
1.2516308709
1.1937149718
1.1941444442
1.1950327165
1.2113366859
1.2419530568
1.2506200912
1.1966934094
1.2143524590
1.2377538313
1.2465582242
1.2342754632
1.1881428188
1.2273515466
1.2344717987
1.2398956311
1.2503994579
1.2127287511