<VTKFile type="UnstructuredGrid" version="0.1">
	<UnstructuredGrid>
		<Piece NumberOfPoints="1862" NumberOfCells="3498">
			<CellData>
				<DataArray type="Int32" Name="type" NumberOfComponents="1" Format="ascii">
0
0
0
0
0
0
0
0
0
0
0
0
0
0
0
0
1
0
0
1
0
0
0
0
0
0
0
0
0
0
0
0
0
1
0
0
0
0
0
0
0
0
0
0
0
0
0
0
0
0
1
0
0
0
0
0
0
0
0
0
0
1
0
0
0
0
0
0
0
0
0
0
0
0
0
0
0
0
0
0
0
0
0
0
0
0
0
0
0
0
0
0
0
0
0
0
0
0
0
0
0
0
0
0
0
0
0
0
0
0
0
0
0
0
0
0
0
0
0
0
0
0
0
1
0
0
0
0
0
0
0
0
0
0
0
0
0
0
0
0
0
0
0
0
0
0
0
0
0
0
0
1
0
1
1
0
0
0
0
0
0
0
0
0
0
0
0
0
1
0
1
0
0
0
0
1
0
0
0
0
0
0
0
0
1
1
0
0
0
0
0
1
0
0
0
0
0
0
0
0
1
0
0
0
0
0
0
0
0
0
0
0
0
0
0
0
0
0
0
0
0
0
0
0
0
0
0
0
0
0
0
0
0
1
0
0
0
0
0
0
0
0
0
0
0
0
0
0
0
0
0
0
0
0
0
0
0
0
0
0
0
0
0
0
0
0
0
0
0
0
0
0
0
0
0
0
0
0
0
0
0
1
0
0
0
0
0
0
0
0
0
0
0
0
0
0
0
0
0
0
0
0
0
0
0
0
0
0
0
0
0
0
0
0
0
0
0
0
0
0
0
0
0
0
0
0
0
0
0
0
0
0
1
0
0
0
0
0
0
0
0
0
0
0
0
0
0
0
0
0
0
0
0
0
0
0
0
0
0
0
0
0
0
0
0
0
0
0
0
0
0
0
0
0
0
0
0
0
0
0
0
0
0
0
0
0
0
0
0
0
1
0
0
0
0
0
0
0
0
0
0
0
0
0
0
0
0
0
0
0
0
0
0
0
0
0
0
0
0
0
0
0
0
0
0
0
0
0
0
0
0
0
0
0
0
0
0
0
0
0
0
0
0
0
0
0
0
0
0
0
0
0
0
0
0
0
0
0
0
0
0
0
0
0
0
0
0
0
0
0
0
0
0
0
0
0
0
0
0
0
0
0
0
0
0
0
0
0
0
0
0
0
0
0
0
0
0
0
0
0
0
0
0
0
0
0
0
0
0
0
0
0
0
0
0
0
0
0
0
0
0
0
0
1
0
0
0
0
0
0
0
0
0
0
0
0
0
0
0
0
0
0
0
1
0
0
0
0
0
0
0
0
0
0
0
0
0
0
0
0
0
0
0
0
0
0
0
0
0
0
0
0
0
0
0
0
0
0
0
0
0
0
0
0
0
0
0
0
0
0
0
0
0
0
0
0
0
1
0
0
0
0
0
0
0
0
0
0
0
0
0
0
0
0
0
0
0
0
0
0
0
1
0
0
0
0
0
0
0
0
0
0
0
0
0
0
0
0
0
0
0
1
0
0
0
1
0
0
0
0
0
0
0
0
0
0
0
0
0
0
0
0
0
0
0
0
0
0
0
0
0
1
0
0
0
0
0
0
0
1
0
0
0
0
0
0
0
0
0
0
0
0
0
0
0
0
0
0
0
0
0
0
0
0
0
0
1
0
0
0
0
0
0
0
1
0
0
0
0
0
0
1
0
0
0
0
0
0
0
0
0
0
0
0
0
0
0
0
0
0
0
0
0
0
0
0
0
0
0
0
0
0
0
0
0
0
0
0
0
0
1
0
0
0
0
0
1
0
0
0
0
0
0
0
1
0
0
0
0
0
0
0
0
0
0
0
0
0
1
0
0
0
0
0
0
0
0
0
0
0
0
0
0
0
0
0
0
0
0
0
0
0
0
0
0
0
0
0
0
0
0
0
0
0
0
0
0
0
0
0
0
0
0
0
0
0
0
0
0
0
0
0
1
0
0
0
0
0
0
0
0
0
0
0
0
0
0
0
0
0
0
0
1
0
0
0
0
0
0
0
0
0
1
0
0
0
0
0
0
0
0
0
0
0
0
0
0
0
0
0
0
0
0
0
0
0
0
0
0
0
0
0
1
0
1
0
0
0
0
0
0
0
0
0
0
0
0
0
0
0
0
0
0
0
0
0
0
0
0
0
0
0
1
0
0
0
1
0
0
0
0
0
0
0
0
0
0
0
0
0
0
0
0
0
0
0
0
0
0
0
0
0
0
0
0
1
0
0
0
0
0
0
0
0
0
0
0
0
0
0
0
0
0
0
0
0
0
0
0
0
0
1
0
0
0
0
0
0
0
0
0
0
0
0
0
0
0
0
0
0
0
0
0
0
0
1
0
0
0
0
0
0
1
0
0
0
0
0
0
0
0
0
0
0
1
0
0
0
0
0
0
0
0
0
0
0
0
0
0
0
0
0
0
0
0
1
0
0
0
0
0
0
0
0
0
0
0
1
0
0
0
0
0
0
0
0
0
0
0
0
0
0
0
0
0
0
0
0
0
1
0
0
0
0
0
0
0
0
0
1
1
0
1
0
1
0
0
0
0
0
0
0
0
0
0
0
1
0
0
0
0
0
1
1
0
0
0
0
0
0
1
0
0
0
0
0
1
1
1
0
0
0
0
0
0
0
0
0
0
0
0
1
1
0
0
1
0
0
0
0
0
1
0
0
0
1
0
1
0
0
0
0
0
0
0
1
0
0
0
0
0
0
0
1
0
0
1
0
0
0
0
0
0
0
0
0
0
0
0
0
0
0
1
0
0
0
0
0
0
0
0
0
0
0
0
0
0
0
0
0
0
0
0
0
0
0
0
0
0
0
0
0
0
0
0
0
0
0
0
1
0
0
0
0
0
0
1
0
0
0
1
0
0
0
0
0
0
0
0
0
0
0
1
0
0
0
0
0
0
0
0
0
0
0
0
0
0
0
0
0
0
0
0
0
0
0
0
0
0
0
0
0
0
0
0
0
0
0
0
0
0
0
0
1
1
0
0
0
0
0
0
0
0
0
0
0
0
0
1
0
0
0
0
0
0
0
0
0
0
0
0
0
0
0
0
0
0
0
0
0
0
0
0
0
0
0
0
0
0
0
0
0
0
0
0
0
0
0
0
0
0
0
0
0
0
0
0
0
0
0
0
0
0
0
0
0
0
0
0
0
0
0
0
0
0
0
0
0
0
0
0
1
1
0
0
0
0
0
0
0
0
1
0
0
0
0
0
0
0
0
0
0
0
0
0
0
0
0
0
0
0
0
0
0
0
1
0
0
0
0
0
0
0
0
0
0
0
0
0
0
0
0
1
0
0
0
0
0
0
0
0
0
0
0
0
0
0
0
0
0
0
0
0
0
0
0
0
0
0
0
0
0
0
0
0
0
0
0
0
0
0
0
0
0
0
0
0
0
0
0
0
0
0
0
0
0
0
0
0
0
0
0
0
0
0
0
0
0
0
0
0
0
0
0
0
0
0
0
0
0
0
0
0
0
0
0
0
0
0
0
0
0
0
1
1
0
0
0
0
0
1
0
0
0
0
0
0
0
0
0
0
0
0
1
0
0
0
0
0
0
0
0
0
0
0
0
0
0
0
0
0
0
0
0
0
0
0
0
0
0
0
0
0
0
0
0
0
0
0
0
0
0
0
0
0
0
0
0
0
0
0
0
0
0
0
0
0
1
0
1
0
0
0
0
0
0
0
0
0
0
0
0
0
0
0
0
0
0
1
0
0
0
0
0
0
0
0
0
0
0
0
0
0
0
0
0
0
0
0
0
0
0
0
0
0
0
0
0
0
0
0
0
0
0
0
0
0
0
0
0
0
0
0
0
0
0
0
0
0
0
0
0
0
0
0
0
0
0
0
0
0
0
0
0
0
0
0
0
0
1
0
0
0
0
0
0
0
0
0
0
1
0
0
0
0
0
0
0
0
0
0
0
0
0
0
0
0
0
0
0
0
0
0
0
0
0
0
0
0
0
0
0
0
0
0
0
0
0
1
0
0
0
0
0
0
0
0
0
0
0
0
0
0
0
0
0
0
0
0
0
0
0
0
0
0
0
0
0
0
0
0
0
0
0
0
0
0
0
0
0
0
0
0
0
0
0
0
0
0
0
0
0
0
0
0
0
0
0
0
0
0
0
0
0
0
0
0
0
0
0
0
0
0
0
0
0
0
0
0
0
1
0
0
0
0
0
0
0
0
0
0
0
0
0
0
0
0
0
0
0
0
0
0
0
0
0
0
0
0
0
0
0
0
0
0
0
0
0
0
0
0
0
0
0
0
0
0
0
0
0
0
0
0
0
0
0
0
0
0
0
0
0
0
0
0
0
0
0
0
0
0
0
0
0
0
0
0
0
0
0
0
0
0
0
0
0
0
0
0
0
0
0
0
0
0
0
0
0
0
0
0
0
0
0
0
0
0
0
0
0
0
0
0
0
0
0
0
0
0
0
0
0
0
0
1
0
0
0
0
0
0
0
0
0
0
0
0
0
0
0
0
0
0
0
0
0
0
0
0
0
0
0
0
0
0
0
0
0
0
0
0
0
0
0
0
0
0
0
0
0
0
0
0
0
0
0
0
0
0
0
0
0
0
0
0
0
0
0
0
0
0
0
0
0
0
0
0
0
0
0
0
0
0
0
0
0
1
0
0
0
0
0
0
0
1
0
0
0
0
0
0
0
0
0
0
0
0
0
0
0
0
0
0
0
0
0
0
0
0
0
0
0
0
0
0
0
0
0
0
0
0
0
1
0
0
0
0
0
0
0
0
0
0
0
0
0
0
0
0
0
0
0
0
0
1
0
0
0
0
0
0
0
0
0
0
0
0
1
1
0
0
0
0
0
0
0
0
0
0
0
0
0
0
0
1
1
0
1
0
0
0
0
0
0
0
0
0
1
0
0
0
0
0
0
1
0
0
0
0
0
0
0
0
0
0
1
0
0
0
0
1
0
1
0
0
0
0
0
0
0
1
0
0
0
1
0
0
0
1
0
1
1
0
0
1
1
0
0
0
1
0
0
0
1
0
0
0
0
0
0
0
0
0
1
0
0
0
0
0
0
1
0
0
0
0
0
0
0
0
0
0
0
0
0
0
0
0
0
0
0
0
0
0
0
0
0
0
0
1
0
0
1
0
0
0
0
0
0
0
0
0
0
0
0
0
0
0
0
0
0
1
0
0
1
0
0
0
0
0
0
0
0
0
0
0
1
0
0
1
0
0
0
0
0
0
0
0
0
0
0
1
1
0
0
0
0
0
0
0
0
0
0
0
0
1
0
0
0
0
0
0
0
0
0
0
0
0
0
0
0
0
0
1
0
0
0
0
0
0
0
0
0
0
0
0
0
0
0
0
0
1
0
0
0
0
0
0
0
0
0
0
0
0
0
0
0
0
0
0
0
0
0
0
0
0
0
0
0
0
0
0
0
0
0
0
0
0
0
0
0
0
1
0
0
0
0
0
0
0
0
0
0
0
0
0
0
0
0
0
0
0
0
0
0
0
0
0
0
0
0
0
0
0
0
0
0
0
0
0
0
0
0
0
0
0
0
0
1
0
0
0
0
0
0
0
0
0
0
0
0
0
0
0
0
0
0
0
0
0
0
0
0
0
0
0
0
0
0
0
0
0
0
0
0
0
0
0
0
0
0
0
0
0
0
0
1
0
0
0
0
0
0
0
0
0
0
1
0
0
0
0
0
0
0
0
0
0
0
0
0
0
0
1
0
0
1
0
0
0
0
0
0
0
0
0
0
0
0
0
0
0
0
0
0
0
0
0
0
0
1
0
0
0
0
0
0
0
0
0
0
0
0
0
0
0
0
0
0
0
0
0
0
0
0
0
0
0
0
0
0
0
0
0
0
0
1
0
0
0
0
0
0
0
0
0
0
0
0
0
0
0
0
0
0
0
0
0
0
0
0
0
0
0
0
0
0
0
0
0
0
0
0
0
0
0
0
0
0
0
0
0
0
0
0
0
0
0
0
0
0
0
0
0
0
0
0
0
0
0
0
0
0
0
0
0
0
0
0
0
0
0
0
1
0
0
0
0
0
0
0
0
0
0
0
0
0
0
0
0
0
0
0
0
0
0
0
0
0
0
0
0
0
0
0
0
0
0
0
0
0
0
0
1
0
0
0
0
0
0
0
0
0
0
0
0
1
1
0
0
0
0
0
0
0
0
0
0
0
0
0
0
0
0
0
0
0
0
0
0
0
0
0
0
0
0
0
0
0
0
0
0
0
0
0
0
0
0
0
0
0
0
0
0
0
0
0
0
0
0
0
0
0
0
0
0
0
0
0
0
0
0
0
0
0
0
0
0
0
0
0
0
0
0
0
0
0
0
0
0
0
0
0
0
0
0
0
0
0
0
0
0
0
0
0
0
0
0
0
1
0
1
0
0
0
0
0
0
0
1
1
1
1
0
0
0
0
0
0
0
0
0
0
0
0
0
0
0
0
0
0
0
0
0
0
0
0
0
0
0
0
1
1
0
0
0
0
0
0
0
0
0
0
0
0
0
0
0
0
0
0
1
0
0
0
0
0
0
0
1
1
0
1
1
0
0
1
0
0
0
0
0
0
0
1
0
1
0
0
0
0
0
0
0
0
0
0
0
0
0
0
0
0
0
0
0
0
0
0
0
0
0
0
0
1
1
0
0
0
1
1
0
0
0
0
1
0
0
1
0
1
0
0
0
0
0
1
0
0
0
1
0
0
0
0
0
0
0
0
0
0
0
0
0
0
0
0
0
0
0
0
0
0
0
0
0
0
0
1
0
0
0
0
0
0
1
0
0
0
0
0
0
0
0
0
0
0
0
0
0
0
0
0
0
0
0
0
0
0
0
0
0
0
0
0
1
0
1
0
0
0
0
0
0
0
1
0
0
0
0
0
0
0
0
0
0
0
1
0
0
0
0
0
0
0
0
0
1
0
0
0
0
0
0
0
1
0
0
0
0
0
0
0
1
0
0
0
0
0
0
0
0
0
0
0
0
0
0
0
0
0
0
0
1
0
1
0
0
0
0
0
1
0
0
0
0
0
0
0
0
0
0
0
0
0
0
0
0
0
0
0
0
0
0
0
0
0
1
0
1
0
0
0
0
0
0
0
0
0
1
0
0
0
0
0
1
0
0
0
0
0
0
0
0
0
0
0
0
0
0
0
1
0
0
0
0
0
0
0
0
1
0
0
0
0
0
0
0
0
0
0
0
0
0
0
0
0
0
0
0
0
0
0
0
0
0
0
0
0
0
0
1
0
0
0
0
0
0
0
0
0
0
0
0
0
0
0
0
1
0
0
0
0
0
0
0
0
1
0
0
0
0
0
0
0
0
0
1
0
0
0
0
0
1
0
0
0
0
0
0
0
0
0
0
0
0
0
0
0
0
0
0
0
1
0
0
0
0
0
0
1
0
0
0
0
0
0
0
0
1
0
0
0
0
0
0
0
0
0
0
0
0
0
0
1
0
0
1
0
0
0
1
0
0
0
0
0
0
0
0
0
0
0
0
0
0
0
0
1
0
0
0
0
0
0
0
0
0
0
1
0
1
0
0
0
0
0
0
1
0
0
0
0
0
0
0
0
0
0
0
0
0
0
0
0
0
0
0
0
0
0
0
0
0
0
0
1
1
0
0
0
0
0
0
1
0
0
0
0
0
0
0
0
0
0
0
0
0
1
0
0
0
0
0
0
0
1
0
0
0
0
0
0
0
0
0
0
0
0
0
0
0
0
0
0
0
0
0
0
0
0
0
0
0
1
0
0
0
0
0
0
0
0
0
0
1
0
0
1
0
0
0
0
0
0
0
0
0
0
0
0
0
0
0
0
0
0
0
0
0
0
0
0
0
0
0
0
0
1
0
0
0
0
0
0
0
1
0
0
0
0
0
0
0
1
0
0
0
0
1
0
0
0
0
0
0
0
0
0
0
0
1
0
1
0
0
0
1
0
				</DataArray>
				<DataArray type="Float64" Name="h" NumberOfComponents="1" Format="ascii">
1.1597082430
1.1597151364
1.1578559197
1.1583237076
1.1580771330
1.1582337657
1.1581287191
1.1593810430
1.1589879662
1.1601086687
1.1587605824
1.1578992726
1.1601118725
1.1589547716
1.1596144876
1.1617438045
1.1581149404
1.1601893052
1.1601775026
1.1586038394
1.1576334819
1.1611862631
1.1600350575
1.1580999348
1.1583124886
1.1623953035
1.1618525075
1.1608625559
1.1592884923
1.1593255213
1.1588636314
1.1594673967
1.1618500599
1.1577239164
1.1574714616
1.1585810402
1.1574062046
1.1609271488
1.1610224764
1.1576702405
1.1586715286
1.1595278376
1.1611653419
1.1600874665
1.1580244901
1.1603382259
1.1602544593
1.1577787920
1.1657604174
1.1651542218
1.1574346668
1.1593004770
1.1594184252
1.1605316921
1.1586323051
1.1621600241
1.1595943083
1.1580200303
1.1590303760
1.1594449182
1.1590716787
1.1584446936
1.1645124708
1.1586977695
1.1603258775
1.1612073055
1.1647738941
1.1639395687
1.1587544184
1.1580962280
1.1585782318
1.1582295452
1.1619214869
1.1608453101
1.1597924615
1.1632539325
1.1581264849
1.1595990309
1.1575509579
1.1623027528
1.1602405673
1.1612947046
1.1697899004
1.1635807600
1.1627343925
1.1628275007
1.1610901425
1.1635594590
1.1607587400
1.1689710164
1.1623254760
1.1625768089
1.1599751613
1.1682105712
1.1625375081
1.1622457237
1.1638867333
1.1619640006
1.1615925299
1.1612601896
1.1688462228
1.1601462494
1.1623143304
1.1575062171
1.1609874907
1.1649004087
1.1637992292
1.1666819155
1.1600076572
1.1619800074
1.1672831707
1.1680196137
1.1612922427
1.1632436051
1.1621184915
1.1658339843
1.1617993139
1.1604448776
1.1652579588
1.1622015949
1.1604600344
1.1632393379
1.1639879221
1.1605631585
1.1624247747
1.1665701138
1.1617229366
1.1607770028
1.1644148837
1.1663741121
1.1639115541
1.1632686792
1.1619344090
1.1650723200
1.1599272726
1.1641309262
1.1627770841
1.1661858610
1.1616462765
1.1627253997
1.1613408037
1.1601741078
1.1646642750
1.1628397030
1.1634120304
1.1628517544
1.1627124400
1.1695252728
1.1605316461
1.1704198542
1.1628581280
1.1660246099
1.1669795800
1.1694643938
1.1608588878
1.1674645159
1.1682831071
1.1612491841
1.1697960997
1.1618461943
1.1631088688
1.1689158371
1.1628418030
1.1614019602
1.1611090492
1.1685295112
1.1629265407
1.1630971117
1.1613590312
1.1680354367
1.1675693852
1.1617132120
1.1691295540
1.1618631294
1.1633047307
1.1707416396
1.1631834772
1.1712951540
1.1703286084
1.1619007201
1.1675908871
1.1635149315
1.1620733955
1.1646767757
1.1612246236
1.1627630223
1.1630998057
1.1703974000
1.1617780212
1.1632190693
1.1638266847
1.1700386620
1.1624390291
1.1634147019
1.1706675276
1.1705312503
1.1624619218
1.1642743031
1.1638185475
1.1719427559
1.1630880147
1.1650868770
1.1629715394
1.1708701348
1.1649358603
1.1631139166
1.1638493981
1.1634714121
1.1643553007
1.1640312211
1.1645760617
1.1624916760
1.1628532446
1.1636353546
1.1637035879
1.1649314985
1.1639283772
1.1631603111
1.1643229983
1.1625751129
1.1651738559
1.1695680880
1.1641462585
1.1681367795
1.1659847021
1.1724554413
1.1710632787
1.1668053658
1.1659209188
1.1703229556
1.1715846800
1.1688394183
1.1662917364
1.1724010135
1.1722153509
1.1673982927
1.1649824649
1.1651067601
1.1630256234
1.1653300568
1.1657216019
1.1646299793
1.1639557646
1.1644086761
1.1638929777
1.1642435875
1.1636341662
1.1647074739
1.1649204605
1.1641104018
1.1652289382
1.1655426197
1.1636611225
1.1654166453
1.1660317536
1.1645476868
1.1643144803
1.1641099360
1.1636392198
1.1691258072
1.1654248083
1.1672814792
1.1682361688
1.1696691976
1.1665858729
1.1724044497
1.1735004692
1.1663363630
1.1727237170
1.1712205488
1.1725766188
1.1645312346
1.1705541503
1.1676352722
1.1684048995
1.1671178483
1.1676722189
1.1689051226
1.1704630077
1.1663511093
1.1712557118
1.1732839929
1.1727079346
1.1734218100
1.1719351252
1.1698372059
1.1670008139
1.1665032708
1.1646081817
1.1650457818
1.1655467474
1.1661437622
1.1659859929
1.1651709412
1.1666996310
1.1668582060
1.1657221921
1.1662946008
1.1652928389
1.1645507108
1.1657016403
1.1653972826
1.1659219262
1.1671146285
1.1665461278
1.1666308720
1.1667610760
1.1656429707
1.1647229496
1.1685302730
1.1691059572
1.1697032508
1.1736870498
1.1674497794
1.1742387407
1.1707212991
1.1667298175
1.1722276705
1.1747430114
1.1658017298
1.1713098818
1.1679082125
1.1729587152
1.1737297446
1.1690321206
1.1684340365
1.1704757746
1.1738528902
1.1699005851
1.1715060468
1.1728648686
1.1748247066
1.1743588425
1.1682735348
1.1721582014
1.1675606983
1.1736634355
1.1669815182
1.1797008209
1.1681299918
1.1680107282
1.1670981454
1.1658244170
1.1673062050
1.1675018310
1.1680281088
1.1665878307
1.1663598131
1.1807880044
1.1730139746
1.1682144731
1.1776708734
1.1668244934
1.1660279467
1.1822231030
1.1681264605
1.1754000530
1.1679994122
1.1670659636
1.1804967225
1.1797403781
1.1817288584
1.1657034010
1.1671520572
1.1676679710
1.1678207886
1.1723342415
1.1736464579
1.1751588235
1.1670732833
1.1780367958
1.1824894294
1.1666960502
1.1761928561
1.1723953457
1.1730051395
1.1752445389
1.1734375483
1.1760365852
1.1697461486
1.1685397665
1.1739888793
1.1748625364
1.1680684357
1.1747790848
1.1671085477
1.1691881615
1.1706314968
1.1711595969
1.1763111407
1.1756495625
1.1694271880
1.1715023783
1.1750341695
1.1764194070
1.1739297482
1.1763787651
1.1757363366
1.1761040852
1.1752608286
1.1703581312
1.1745961155
1.1756661466
1.1732415858
1.1750044570
1.1752060868
1.1754969557
1.1687241919
1.1698452053
1.1760634083
1.1720633706
1.1724148848
1.1769193004
1.1744151211
1.1685335980
1.1808076656
1.1783899318
1.1685414846
1.1787980534
1.1716974892
1.1738795563
1.1728994354
1.1681533506
1.1804174083
1.1825507055
1.1747973011
1.1785182560
1.1672598722
1.1817194399
1.1685078751
1.1739769528
1.1838926887
1.1794084574
1.1829064005
1.1766550646
1.1764229058
1.1865405262
1.1777658158
1.1787974729
1.1753998046
1.1758581404
1.1811315258
1.1683913771
1.1841478928
1.1764296329
1.1685775238
1.1725981705
1.1782318159
1.1759070032
1.1836693426
1.1811071601
1.1778804252
1.1670737008
1.1710901225
1.1684236889
1.1728987552
1.1862084203
1.1850533410
1.1781497582
1.1866116698
1.1675305689
1.1688334301
1.1702009891
1.1762607409
1.1684669050
1.1741339246
1.1736658601
1.1704384765
1.1762184927
1.1698600025
1.1769375132
1.1700853191
1.1758379392
1.1697992753
1.1696692297
1.1721557471
1.1892926614
1.1777608172
1.1688835943
1.1745938486
1.1749477847
1.1701209835
1.1700874968
1.1767636134
1.1900935077
1.1891751267
1.1764412424
1.1753290560
1.1731461077
1.1780256651
1.1782850816
1.1698794959
1.1908729138
1.1692021114
1.1763773419
1.1763255464
1.1701939427
1.1914932219
1.1750517462
1.1769523079
1.1854427121
1.1872656834
1.1780544035
1.1761028628
1.1752601718
1.1699253548
1.1712290255
1.1686411289
1.1708148874
1.1802162737
1.1753304873
1.1698217694
1.1824989554
1.1700853007
1.1766437271
1.1688826071
1.1827217224
1.1753355377
1.1695856508
1.1712774369
1.1698221725
1.1768443242
1.1772111105
1.1808261552
1.1714477748
1.1855326238
1.1797740650
1.1795852328
1.1761150046
1.1706424674
1.1824901664
1.1702011828
1.1796162985
1.1709843773
1.1698595419
1.1794092439
1.1692009115
1.1701940694
1.1686405385
1.1761145756
1.1701214053
1.1804532638
1.1816905654
1.1692800299
1.1820105982
1.1714362129
1.1785785836
1.1697994367
1.1813897771
1.1807201690
1.1861403685
1.1821408542
1.1712941813
1.1777521555
1.1700568623
1.1774177943
1.1707815328
1.1795383718
1.1845437226
1.1851341811
1.1707705798
1.1788268660
1.1850503020
1.1700875035
1.1784549263
1.1777642224
1.1699253217
1.1736626001
1.1818259656
1.1778787642
1.1710245512
1.1794122231
1.1858268491
1.1808591490
1.1716968718
1.1714468558
1.1709174581
1.1775776944
1.1824979097
1.1724754022
1.1733403320
1.1759019610
1.1854417439
1.1818618007
1.1788837121
1.1729311968
1.1787980520
1.1769152489
1.1725965475
1.1870662343
1.1785179878
1.1818034507
1.1780542931
1.1793390868
1.1893638732
1.1710899740
1.1722900800
1.1710842735
1.1906248024
1.1772567196
1.1759930490
1.1728012188
1.1894833888
1.1733860361
1.1747925442
1.1886387789
1.1856191720
1.1898492592
1.1783900293
1.1786109070
1.1873831896
1.1724846181
1.1887109580
1.1838823521
1.1775774265
1.1732446082
1.1823517814
1.1709837471
1.1710242389
1.1706424462
1.1714476143
1.1851792697
1.1775523442
1.1719631188
1.1695847434
1.1731254191
1.1847029992
1.1926058237
1.1700556605
1.1937197149
1.1856188940
1.1895481502
1.1932220577
1.1707814630
1.1712770929
1.1707704236
1.1712939168
1.1893000937
1.1937253574
1.1863519807
1.1805019263
1.1692795199
1.1887588593
1.1834985925
1.1731880317
1.1898241582
1.1872555021
1.1777519551
1.1884806463
1.1905896237
1.1886315682
1.1739707806
1.1725802951
1.1736419457
1.1858047724
1.1734652116
1.1730797378
1.1714359656
1.1872802235
1.1740151491
1.1722568172
1.1733109431
1.1843370485
1.1911053549
1.1943965411
1.1851457270
1.1788887128
1.1737657966
1.1729445411
1.1738935457
1.1934481712
1.1941370019
1.1794088506
1.1914324592
1.1823958302
1.1925715490
1.1897448489
1.1932272732
1.1943205294
1.1973829680
1.1959170404
1.1805078638
1.1839942797
1.1913942482
1.1874114004
1.1915557196
1.1923811292
1.1939121771
1.1965616058
1.1954741975
1.1871011227
1.1858497719
1.1882467089
1.1868334152
1.1904834660
1.1932812888
1.1952747553
1.1882896164
1.1909312583
1.1835034042
1.1968655529
1.1982361967
1.1821159584
1.1937269932
1.1915143674
1.1786080868
1.1989140161
1.1821396557
1.1957032711
1.1812431975
1.1825653449
1.1987724159
1.1838801394
1.1975306242
1.1959407318
1.1788249052
1.1945546313
1.1802192002
1.1826961032
1.1932853711
1.1930705927
1.1772689464
1.1593590149
1.1587796313
1.1587865770
1.1593664047
1.1582344024
1.1578947523
1.1587549293
1.1589611840
1.1587172531
1.1582289292
1.1580823968
1.1587249619
1.1589935356
1.1596079180
1.1581232111
1.1595532152
1.1589680407
1.1582393670
1.1602726767
1.1601843545
1.1583293059
1.1578602974
1.1601712441
1.1593202428
1.1612108251
1.1579285572
1.1593868954
1.1623934970
1.1583073259
1.1601137165
1.1610792903
1.1601186291
1.1577822483
1.1621106458
1.1602477282
1.1595590385
1.1588581682
1.1602784349
1.1577201631
1.1618437492
1.1594584930
1.1621082075
1.1576659109
1.1616047042
1.1581195123
1.1617489084
1.1611619841
1.1610218639
1.1579328232
1.1612150288
1.1586630023
1.1589604998
1.1586088707
1.1577864786
1.1600425571
1.1577662751
1.1611904793
1.1576088071
1.1610842664
1.1576372864
1.1602558379
1.1609657663
1.1605863836
1.1577753030
1.1621158480
1.1580190458
1.1574312215
1.1602465066
1.1608650347
1.1581050877
1.1592979057
1.1595851589
1.1616521369
1.1618583041
1.1575359364
1.1612164920
1.1616001023
1.1590517821
1.1572991846
1.1621140006
1.1594080963
1.1577699902
1.1659774819
1.1636971405
1.1609700738
1.1576129754
1.1580650953
1.1605901097
1.1585884380
1.1603201626
1.1609303999
1.1582101750
1.1574750861
1.1645060757
1.1639309192
1.1600818767
1.1574098856
1.1586903007
1.1590581180
1.1582564739
1.1585066473
1.1600945144
1.1608384256
1.1598376113
1.1582241278
1.1619183987
1.1581690337
1.1622198836
1.1610190684
1.1575399750
1.1589739102
1.1573025419
1.1595366269
1.1581236579
1.1585756172
1.1604748875
1.1597873118
1.1616499391
1.1612290039
1.1587527612
1.1572632378
1.1612208349
1.1580943713
1.1580702774
1.1582147168
1.1617135859
1.1600884478
1.1632614504
1.1587183259
1.1654588639
1.1657684454
1.1593102223
1.1637057548
1.1603437908
1.1612929334
1.1635740453
1.1601070778
1.1659866806
1.1651639367
1.1590725064
1.1584458120
1.1612303856
1.1597588014
1.1604805178
1.1590342447
1.1589678934
1.1598430337
1.1631371811
1.1623517885
1.1582601464
1.1572665708
1.1590828147
1.1586387997
1.1589770627
1.1581708483
1.1589746806
1.1621640701
1.1607716343
1.1593871117
1.1622185551
1.1605363295
1.1585105817
1.1594497531
1.1625845633
1.1580225370
1.1610194444
1.1599739208
1.1632687909
1.1575035720
1.1615929215
1.1601116765
1.1626941042
1.1587229637
1.1601467609
1.1651534707
1.1609354001
1.1631219437
1.1612102444
1.1688429160
1.1647814526
1.1573100632
1.1619724054
1.1594947084
1.1622487218
1.1596598789
1.1654685362
1.1612602260
1.1648971266
1.1617125166
1.1697140986
1.1607752378
1.1600042728
1.1680096038
1.1597595848
1.1593913023
1.1612896751
1.1590876771
1.1632471211
1.1675409221
1.1589726400
1.1596013197
1.1623522115
1.1621008480
1.1631306538
1.1672694476
1.1619799297
1.1589792319
1.1609368961
1.1697112543
1.1609763597
1.1594946062
1.1628204242
1.1632383438
1.1609803060
1.1573129188
1.1615894263
1.1596645232
1.1631270323
1.1627281959
1.1622964257
1.1610896015
1.1697888509
1.1602402019
1.1617951482
1.1575535255
1.1651603440
1.1604560198
1.1635617268
1.1626900981
1.1621006089
1.1632729180
1.1666579475
1.1617741623
1.1665658750
1.1613555449
1.1630910351
1.1607624689
1.1625342453
1.1682228094
1.1662437710
1.1689776092
1.1623260897
1.1652950037
1.1577129518
1.1624188808
1.1617159437
1.1675548784
1.1663770837
1.1623164071
1.1675266392
1.1669829171
1.1609810174
1.1615927724
1.1609849093
1.1643532774
1.1599230583
1.1641313816
1.1619281518
1.1609912329
1.1638848830
1.1634191165
1.1661017462
1.1601698066
1.1625677025
1.1617760227
1.1662419231
1.1632466561
1.1666878029
1.1620869874
1.1577150516
1.1630930202
1.1621241962
1.1605277966
1.1666710672
1.1646670652
1.1609114978
1.1658304169
1.1613588106
1.1628533291
1.1652973427
1.1637926895
1.1602633678
1.1637482118
1.1665053249
1.1667675066
1.1675260079
1.1643587204
1.1625426488
1.1652423108
1.1675266446
1.1617471794
1.1622084835
1.1669946503
1.1660293930
1.1604488776
1.1626819833
1.1652587804
1.1596245028
1.1628553203
1.1669850234
1.1608603319
1.1620910051
1.1609154812
1.1630937348
1.1611058161
1.1625749415
1.1691290324
1.1602673771
1.1609948163
1.1704384879
1.1653817188
1.1661110548
1.1605674511
1.1644113071
1.1631044325
1.1606249113
1.1639818414
1.1639099972
1.1594808514
1.1628381921
1.1634498189
1.1689225367
1.1607808374
1.1698024372
1.1617454988
1.1627817365
1.1650677150
1.1677420287
1.1654939802
1.1675276330
1.1663945173
1.1661807750
1.1691354180
1.1591993661
1.1621492454
1.1616442863
1.1596292226
1.1665118500
1.1625448206
1.1667618797
1.1637426423
1.1626798352
1.1680415715
1.1633221498
1.1652379799
1.1675749173
1.1618611315
1.1704132646
1.1620701049
1.1648938667
1.1606288412
1.1609982945
1.1685237422
1.1684946582
1.1697827566
1.1628447661
1.1695185660
1.1627158286
1.1618979304
1.1704318555
1.1594856589
1.1653825066
1.1622631873
1.1613441024
1.1675960339
1.1634468111
1.1631799951
1.1624782307
1.1627306348
1.1691224957
1.1615863068
1.1617742276
1.1674585322
1.1682769325
1.1621501679
1.1652243937
1.1677358962
1.1598528153
1.1592043367
1.1654934538
1.1612207565
1.1663895302
1.1694591040
1.1612515618
1.1633187243
1.1630996924
1.1646421696
1.1706731649
1.1629297475
1.1615897834
1.1685199984
1.1705372986
1.1622661144
1.1697764307
1.1624755020
1.1694609732
1.1619963129
1.1684884321
1.1648911473
1.1611155410
1.1700442743
1.1642481063
1.1614049158
1.1685246676
1.1634179492
1.1712031373
1.1618496677
1.1650929504
1.1710738535
1.1617171375
1.1629676417
1.1633059139
1.1708762365
1.1652201564
1.1613630489
1.1630839390
1.1598573829
1.1638236347
1.1712708568
1.1703227574
1.1622137164
1.1619999200
1.1611192599
1.1624877622
1.1711963291
1.1694546679
1.1624664124
1.1705860547
1.1635132669
1.1642441921
1.1707360954
1.1646360230
1.1628201855
1.1628367775
1.1712883447
1.1628506695
1.1643601744
1.1638231068
1.1715909797
1.1710683524
1.1632232499
1.1712653604
1.1710185778
1.1716675539
1.1646716947
1.1627668192
1.1703913334
1.1651789770
1.1636313905
1.1642399388
1.1628439888
1.1638912472
1.1642702726
1.1628409125
1.1654831760
1.1625070346
1.1644060442
1.1632859581
1.1622158868
1.1649841776
1.1624428377
1.1627979655
1.1705807539
1.1624643001
1.1631854241
1.1641070258
1.1637405734
1.1654182379
1.1643105906
1.1636592528
1.1647086303
1.1628244675
1.1630213810
1.1624692863
1.1717745508
1.1660989382
1.1649320393
1.1710123168
1.1698213504
1.1645306832
1.1716623137
1.1683971933
1.1663567638
1.1727143528
1.1712504066
1.1717207760
1.1670053941
1.1663396928
1.1705415846
1.1719373843
1.1691119474
1.1665921658
1.1727290882
1.1718946128
1.1724102764
1.1676349174
1.1645737018
1.1655436280
1.1643391014
1.1625786579
1.1657204132
1.1661440417
1.1632875420
1.1654810514
1.1628460501
1.1629201639
1.1665756500
1.1651699285
1.1646064211
1.1625107601
1.1640352693
1.1634734111
1.1638532647
1.1631169237
1.1643223130
1.1653949694
1.1647221603
1.1628021237
1.1656399768
1.1659223012
1.1631624905
1.1649289585
1.1665460220
1.1649195036
1.1639295872
1.1639332839
1.1637420537
1.1637067703
1.1631893710
1.1688555462
1.1658013770
1.1672258841
1.1675646352
1.1684413114
1.1698996052
1.1662854280
1.1718927812
1.1722086146
1.1738578892
1.1659164565
1.1723958489
1.1730925668
1.1714924306
1.1728549785
1.1641481459
1.1717680685
1.1703326037
1.1674012088
1.1681482323
1.1674508541
1.1679147750
1.1691107251
1.1707130601
1.1659785205
1.1710649397
1.1717165375
1.1736919125
1.1660978119
1.1724488267
1.1737324867
1.1722133823
1.1733782679
1.1695835772
1.1668012064
1.1669794102
1.1656230055
1.1639579874
1.1629235467
1.1658238499
1.1651102782
1.1657206489
1.1676413226
1.1665874509
1.1665757004
1.1646311258
1.1670971698
1.1673056723
1.1653327867
1.1643398011
1.1668229797
1.1660282497
1.1639329758
1.1649457026
1.1649228513
1.1655420043
1.1676667993
1.1663031670
1.1660311615
1.1649199010
1.1670641161
1.1671519597
1.1652328073
1.1641116024
1.1687256727
1.1689018063
1.1698521178
1.1732792067
1.1671155295
1.1745863627
1.1704758571
1.1671083206
1.1719489428
1.1733812395
1.1746417182
1.1752087010
1.1683434810
1.1654256639
1.1715069202
1.1676647591
1.1732349236
1.1734168350
1.1691925884
1.1682286887
1.1706387464
1.1734946321
1.1672268820
1.1750216047
1.1696741592
1.1712368635
1.1725834545
1.1752439163
1.1748664320
1.1685390192
1.1723945785
1.1672762742
1.1739785948
1.1730920062
1.1808086281
1.1739783360
1.1687320940
1.1788020708
1.1665058314
1.1656227749
1.1804562006
1.1823225394
1.1685411182
1.1743589394
1.1685069994
1.1667010819
1.1793505094
1.1804195060
1.1817283105
1.1650470417
1.1668583209
1.1676431807
1.1681534657
1.1685325686
1.1659863716
1.1724158212
1.1734456966
1.1764261257
1.1672603106
1.1767109465
1.1814156377
1.1671028654
1.1802238894
1.1729878600
1.1688320169
1.1775596803
1.1662962395
1.1652930359
1.1797076887
1.1829394061
1.1685767017
1.1754321923
1.1684233739
1.1666333759
1.1806709640
1.1794056903
1.1808281965
1.1649482024
1.1667608591
1.1671153816
1.1678497450
1.1683906882
1.1663027424
1.1719825004
1.1738617199
1.1751846025
1.1661893410
1.1780563732
1.1820408692
1.1675315512
1.1752728766
1.1767642829
1.1695143737
1.1721637930
1.1769016994
1.1763569680
1.1731523677
1.1748226950
1.1745952076
1.1755267446
1.1753827526
1.1764358654
1.1780272829
1.1780794351
1.1698795207
1.1750272827
1.1682731096
1.1744695792
1.1736761764
1.1741916695
1.1743546465
1.1684667897
1.1750521197
1.1667300808
1.1690260519
1.1704689674
1.1790245207
1.1712330831
1.1780554521
1.1762633832
1.1696681186
1.1713081726
1.1759935118
1.1769356195
1.1741381413
1.1746448388
1.1742636931
1.1750999996
1.1772845824
1.1768148081
1.1777662348
1.1766884988
1.1704401158
1.1742479588
1.1683456929
1.1772574000
1.1729700929
1.1762189784
1.1747389547
1.1758344863
1.1685272143
1.1696952875
1.1777616735
1.1721617535
1.1722623466
1.1853159028
1.1766657829
1.1782252290
1.1753363456
1.1743579929
1.1768453839
1.1796558903
1.1680295749
1.1801398851
1.1827411399
1.1779549122
1.1801407361
1.1762709818
1.1681305226
1.1785810784
1.1716649198
1.1734450344
1.1740081420
1.1722861713
1.1771253888
1.1675016955
1.1799667659
1.1817264376
1.1747115570
1.1845467550
1.1785844235
1.1824929066
1.1778490505
1.1663601113
1.1706439652
1.1814123292
1.1680114153
1.1723335011
1.1738804364
1.1861434127
1.1851370217
1.1740060121
1.1796180350
1.1847644956
1.1793474112
1.1823201040
1.1866071924
1.1671020274
1.1687345427
1.1767090301
1.1763966188
1.1825527051
1.1730135204
1.1861583417
1.1774205913
1.1817228694
1.1781970612
1.1749389114
1.1736453928
1.1757650565
1.1812016067
1.1678216868
1.1804549360
1.1842298228
1.1787452638
1.1766529899
1.1681277045
1.1797371494
1.1725909638
1.1738826392
1.1738832742
1.1782474154
1.1678488902
1.1807865609
1.1822216071
1.1757428968
1.1834014220
1.1810882282
1.1771632985
1.1661907327
1.1709725472
1.1766566660
1.1804936067
1.1679995212
1.1722857158
1.1851822693
1.1844691462
1.1751571800
1.1782116864
1.1839112746
1.1780535515
1.1820385895
1.1873427412
1.1666954157
1.1682159091
1.1754303433
1.1776671594
1.1696742494
1.1756460584
1.1887128997
1.1894862725
1.1768193682
1.1680684510
1.1749463754
1.1739289384
1.1777648250
1.1794128177
1.1736366342
1.1703546485
1.1750038275
1.1906278574
1.1687511392
1.1755252219
1.1691716938
1.1764197542
1.1790329007
1.1696394211
1.1905921984
1.1755041643
1.1767017707
1.1838020885
1.1884112812
1.1752720993
1.1757349580
1.1741914958
1.1741909155
1.1693085633
1.1694276637
1.1720567596
1.1884136716
1.1760626501
1.1774337698
1.1678811991
1.1734362607
1.1709178460
1.1790893297
1.1760984991
1.1774013063
1.1694070872
1.1766548270
1.1841984121
1.1694899607
1.1761908454
1.1898515345
1.1886707814
1.1760436742
1.1745372265
1.1730001740
1.1772830510
1.1782921206
1.1697448967
1.1774332259
1.1898274531
1.1682927764
1.1750986291
1.1695481798
1.1763611213
1.1780555281
1.1697191075
1.1908684812
1.1747830926
1.1760969250
1.1855818391
1.1871060264
1.1763102885
1.1753816262
1.1766879431
1.1755208176
1.1694771469
1.1695164218
1.1711538526
1.1885552498
1.1790235413
1.1676404887
1.1742624476
1.1750248222
1.1699318046
1.1804344555
1.1739860369
1.1767033742
1.1692422240
1.1826086104
1.1780916625
1.1687500885
1.1696394118
1.1762705204
1.1678807306
1.1827389905
1.1753991862
1.1699327723
1.1838643207
1.1750778434
1.1839874569
1.1706664983
1.1854439630
1.1843993757
1.1717969663
1.1768608387
1.1776644898
1.1692427576
1.1797718805
1.1768596406
1.1751817856
1.1771246145
1.1804999379
1.1799682100
1.1797062587
1.1766440990
1.1719821537
1.1843965061
1.1809392528
1.1720075704
1.1853130280
1.1794041545
1.1772053038
1.1786388416
1.1722629714
1.1705516466
1.1796545918
1.1780348705
1.1754426406
1.1781695314
1.1829088701
1.1713165506
1.1803287263
1.1797001239
1.1871608440
1.1738606576
1.1823647359
1.1870314191
1.1713323344
1.1789653074
1.1823616808
1.1841195651
1.1696747858
1.1808108043
1.1796637550
1.1716909448
1.1691712730
1.1824860577
1.1807471220
1.1682916903
1.1697194457
1.1767086047
1.1676407978
1.1811998817
1.1754421228
1.1795863398
1.1694078554
1.1820879329
1.1758572668
1.1836569316
1.1703775603
1.1839951920
1.1719639337
1.1794999965
1.1693086784
1.1832440766
1.1744162580
1.1781485463
1.1764290072
1.1825671371
1.1817266260
1.1855351815
1.1847615666
1.1841613390
1.1719118456
1.1841453676
1.1783468667
1.1807948809
1.1710175775
1.1782463955
1.1870345370
1.1767089258
1.1775094544
1.1716022046
1.1812451880
1.1861554017
1.1866087355
1.1713648847
1.1803938619
1.1836663278
1.1866040847
1.1694902277
1.1794376216
1.1811049562
1.1713777316
1.1695472006
1.1774217352
1.1694770225