<VTKFile type="UnstructuredGrid" version="0.1">
	<UnstructuredGrid>
		<Piece NumberOfPoints="1862" NumberOfCells="3498">
			<CellData>
				<DataArray type="Int32" Name="type" NumberOfComponents="1" Format="ascii">
0
0
0
0
0
0
0
0
0
0
0
0
0
0
0
0
1
0
0
1
0
0
0
0
0
0
0
0
0
0
0
0
0
1
0
0
0
0
0
0
0
0
0
0
0
0
0
0
0
0
1
0
0
0
0
0
0
0
0
0
0
1
0
0
0
0
0
0
0
0
0
0
0
0
0
0
0
0
0
0
0
0
0
0
0
0
0
0
0
0
0
0
0
0
0
0
0
0
0
0
0
0
0
0
0
0
0
0
0
0
0
0
0
0
0
0
0
0
0
0
0
0
0
1
0
0
0
0
0
0
0
0
0
0
0
0
0
0
0
0
0
0
0
0
0
0
0
0
0
0
0
1
0
1
1
0
0
0
0
0
0
0
0
0
0
0
0
0
1
0
1
0
0
0
0
1
0
0
0
0
0
0
0
0
1
1
0
0
0
0
0
1
0
0
0
0
0
0
0
0
1
0
0
0
0
0
0
0
0
0
0
0
0
0
0
0
0
0
0
0
0
0
0
0
0
0
0
0
0
0
0
0
0
1
0
0
0
0
0
0
0
0
0
0
0
0
0
0
0
0
0
0
0
0
0
0
0
0
0
0
0
0
0
0
0
0
0
0
0
0
0
0
0
0
0
0
0
0
0
0
0
1
0
0
0
0
0
0
0
0
0
0
0
0
0
0
0
0
0
0
0
0
0
0
0
0
0
0
0
0
0
0
0
0
0
0
0
0
0
0
0
0
0
0
0
0
0
0
0
0
0
0
1
0
0
0
0
0
0
0
0
0
0
0
0
0
0
0
0
0
0
0
0
0
0
0
0
0
0
0
0
0
0
0
0
0
0
0
0
0
0
0
0
0
0
0
0
0
0
0
0
0
0
0
0
0
0
0
0
0
1
0
0
0
0
0
0
0
0
0
0
0
0
0
0
0
0
0
0
0
0
0
0
0
0
0
0
0
0
0
0
0
0
0
0
0
0
0
0
0
0
0
0
0
0
0
0
0
0
0
0
0
0
0
0
0
0
0
0
0
0
0
0
0
0
0
0
0
0
0
0
0
0
0
0
0
0
0
0
0
0
0
0
0
0
0
0
0
0
0
0
0
0
0
0
0
0
0
0
0
0
0
0
0
0
0
0
0
0
0
0
0
0
0
0
0
0
0
0
0
0
0
0
0
0
0
0
0
0
0
0
0
0
1
0
0
0
0
0
0
0
0
0
0
0
0
0
0
0
0
0
0
0
1
0
0
0
0
0
0
0
0
0
0
0
0
0
0
0
0
0
0
0
0
0
0
0
0
0
0
0
0
0
0
0
0
0
0
0
0
0
0
0
0
0
0
0
0
0
0
0
0
0
0
0
0
0
1
0
0
0
0
0
0
0
0
0
0
0
0
0
0
0
0
0
0
0
0
0
0
0
1
0
0
0
0
0
0
0
0
0
0
0
0
0
0
0
0
0
0
0
1
0
0
0
1
0
0
0
0
0
0
0
0
0
0
0
0
0
0
0
0
0
0
0
0
0
0
0
0
0
1
0
0
0
0
0
0
0
1
0
0
0
0
0
0
0
0
0
0
0
0
0
0
0
0
0
0
0
0
0
0
0
0
0
0
1
0
0
0
0
0
0
0
1
0
0
0
0
0
0
1
0
0
0
0
0
0
0
0
0
0
0
0
0
0
0
0
0
0
0
0
0
0
0
0
0
0
0
0
0
0
0
0
0
0
0
0
0
0
1
0
0
0
0
0
1
0
0
0
0
0
0
0
1
0
0
0
0
0
0
0
0
0
0
0
0
0
1
0
0
0
0
0
0
0
0
0
0
0
0
0
0
0
0
0
0
0
0
0
0
0
0
0
0
0
0
0
0
0
0
0
0
0
0
0
0
0
0
0
0
0
0
0
0
0
0
0
0
0
0
0
1
0
0
0
0
0
0
0
0
0
0
0
0
0
0
0
0
0
0
0
1
0
0
0
0
0
0
0
0
0
1
0
0
0
0
0
0
0
0
0
0
0
0
0
0
0
0
0
0
0
0
0
0
0
0
0
0
0
0
0
1
0
1
0
0
0
0
0
0
0
0
0
0
0
0
0
0
0
0
0
0
0
0
0
0
0
0
0
0
0
1
0
0
0
1
0
0
0
0
0
0
0
0
0
0
0
0
0
0
0
0
0
0
0
0
0
0
0
0
0
0
0
0
1
0
0
0
0
0
0
0
0
0
0
0
0
0
0
0
0
0
0
0
0
0
0
0
0
0
1
0
0
0
0
0
0
0
0
0
0
0
0
0
0
0
0
0
0
0
0
0
0
0
1
0
0
0
0
0
0
1
0
0
0
0
0
0
0
0
0
0
0
1
0
0
0
0
0
0
0
0
0
0
0
0
0
0
0
0
0
0
0
0
1
0
0
0
0
0
0
0
0
0
0
0
1
0
0
0
0
0
0
0
0
0
0
0
0
0
0
0
0
0
0
0
0
0
1
0
0
0
0
0
0
0
0
0
1
1
0
1
0
1
0
0
0
0
0
0
0
0
0
0
0
1
0
0
0
0
0
1
1
0
0
0
0
0
0
1
0
0
0
0
0
1
1
1
0
0
0
0
0
0
0
0
0
0
0
0
1
1
0
0
1
0
0
0
0
0
1
0
0
0
1
0
1
0
0
0
0
0
0
0
1
0
0
0
0
0
0
0
1
0
0
1
0
0
0
0
0
0
0
0
0
0
0
0
0
0
0
1
0
0
0
0
0
0
0
0
0
0
0
0
0
0
0
0
0
0
0
0
0
0
0
0
0
0
0
0
0
0
0
0
0
0
0
0
1
0
0
0
0
0
0
1
0
0
0
1
0
0
0
0
0
0
0
0
0
0
0
1
0
0
0
0
0
0
0
0
0
0
0
0
0
0
0
0
0
0
0
0
0
0
0
0
0
0
0
0
0
0
0
0
0
0
0
0
0
0
0
0
1
1
0
0
0
0
0
0
0
0
0
0
0
0
0
1
0
0
0
0
0
0
0
0
0
0
0
0
0
0
0
0
0
0
0
0
0
0
0
0
0
0
0
0
0
0
0
0
0
0
0
0
0
0
0
0
0
0
0
0
0
0
0
0
0
0
0
0
0
0
0
0
0
0
0
0
0
0
0
0
0
0
0
0
0
0
0
0
1
1
0
0
0
0
0
0
0
0
1
0
0
0
0
0
0
0
0
0
0
0
0
0
0
0
0
0
0
0
0
0
0
0
1
0
0
0
0
0
0
0
0
0
0
0
0
0
0
0
0
1
0
0
0
0
0
0
0
0
0
0
0
0
0
0
0
0
0
0
0
0
0
0
0
0
0
0
0
0
0
0
0
0
0
0
0
0
0
0
0
0
0
0
0
0
0
0
0
0
0
0
0
0
0
0
0
0
0
0
0
0
0
0
0
0
0
0
0
0
0
0
0
0
0
0
0
0
0
0
0
0
0
0
0
0
0
0
0
0
0
0
1
1
0
0
0
0
0
1
0
0
0
0
0
0
0
0
0
0
0
0
1
0
0
0
0
0
0
0
0
0
0
0
0
0
0
0
0
0
0
0
0
0
0
0
0
0
0
0
0
0
0
0
0
0
0
0
0
0
0
0
0
0
0
0
0
0
0
0
0
0
0
0
0
0
1
0
1
0
0
0
0
0
0
0
0
0
0
0
0
0
0
0
0
0
0
1
0
0
0
0
0
0
0
0
0
0
0
0
0
0
0
0
0
0
0
0
0
0
0
0
0
0
0
0
0
0
0
0
0
0
0
0
0
0
0
0
0
0
0
0
0
0
0
0
0
0
0
0
0
0
0
0
0
0
0
0
0
0
0
0
0
0
0
0
0
0
1
0
0
0
0
0
0
0
0
0
0
1
0
0
0
0
0
0
0
0
0
0
0
0
0
0
0
0
0
0
0
0
0
0
0
0
0
0
0
0
0
0
0
0
0
0
0
0
0
1
0
0
0
0
0
0
0
0
0
0
0
0
0
0
0
0
0
0
0
0
0
0
0
0
0
0
0
0
0
0
0
0
0
0
0
0
0
0
0
0
0
0
0
0
0
0
0
0
0
0
0
0
0
0
0
0
0
0
0
0
0
0
0
0
0
0
0
0
0
0
0
0
0
0
0
0
0
0
0
0
0
1
0
0
0
0
0
0
0
0
0
0
0
0
0
0
0
0
0
0
0
0
0
0
0
0
0
0
0
0
0
0
0
0
0
0
0
0
0
0
0
0
0
0
0
0
0
0
0
0
0
0
0
0
0
0
0
0
0
0
0
0
0
0
0
0
0
0
0
0
0
0
0
0
0
0
0
0
0
0
0
0
0
0
0
0
0
0
0
0
0
0
0
0
0
0
0
0
0
0
0
0
0
0
0
0
0
0
0
0
0
0
0
0
0
0
0
0
0
0
0
0
0
0
0
1
0
0
0
0
0
0
0
0
0
0
0
0
0
0
0
0
0
0
0
0
0
0
0
0
0
0
0
0
0
0
0
0
0
0
0
0
0
0
0
0
0
0
0
0
0
0
0
0
0
0
0
0
0
0
0
0
0
0
0
0
0
0
0
0
0
0
0
0
0
0
0
0
0
0
0
0
0
0
0
0
0
1
0
0
0
0
0
0
0
1
0
0
0
0
0
0
0
0
0
0
0
0
0
0
0
0
0
0
0
0
0
0
0
0
0
0
0
0
0
0
0
0
0
0
0
0
0
1
0
0
0
0
0
0
0
0
0
0
0
0
0
0
0
0
0
0
0
0
0
1
0
0
0
0
0
0
0
0
0
0
0
0
1
1
0
0
0
0
0
0
0
0
0
0
0
0
0
0
0
1
1
0
1
0
0
0
0
0
0
0
0
0
1
0
0
0
0
0
0
1
0
0
0
0
0
0
0
0
0
0
1
0
0
0
0
1
0
1
0
0
0
0
0
0
0
1
0
0
0
1
0
0
0
1
0
1
1
0
0
1
1
0
0
0
1
0
0
0
1
0
0
0
0
0
0
0
0
0
1
0
0
0
0
0
0
1
0
0
0
0
0
0
0
0
0
0
0
0
0
0
0
0
0
0
0
0
0
0
0
0
0
0
0
1
0
0
1
0
0
0
0
0
0
0
0
0
0
0
0
0
0
0
0
0
0
1
0
0
1
0
0
0
0
0
0
0
0
0
0
0
1
0
0
1
0
0
0
0
0
0
0
0
0
0
0
1
1
0
0
0
0
0
0
0
0
0
0
0
0
1
0
0
0
0
0
0
0
0
0
0
0
0
0
0
0
0
0
1
0
0
0
0
0
0
0
0
0
0
0
0
0
0
0
0
0
1
0
0
0
0
0
0
0
0
0
0
0
0
0
0
0
0
0
0
0
0
0
0
0
0
0
0
0
0
0
0
0
0
0
0
0
0
0
0
0
0
1
0
0
0
0
0
0
0
0
0
0
0
0
0
0
0
0
0
0
0
0
0
0
0
0
0
0
0
0
0
0
0
0
0
0
0
0
0
0
0
0
0
0
0
0
0
1
0
0
0
0
0
0
0
0
0
0
0
0
0
0
0
0
0
0
0
0
0
0
0
0
0
0
0
0
0
0
0
0
0
0
0
0
0
0
0
0
0
0
0
0
0
0
0
1
0
0
0
0
0
0
0
0
0
0
1
0
0
0
0
0
0
0
0
0
0
0
0
0
0
0
1
0
0
1
0
0
0
0
0
0
0
0
0
0
0
0
0
0
0
0
0
0
0
0
0
0
0
1
0
0
0
0
0
0
0
0
0
0
0
0
0
0
0
0
0
0
0
0
0
0
0
0
0
0
0
0
0
0
0
0
0
0
0
1
0
0
0
0
0
0
0
0
0
0
0
0
0
0
0
0
0
0
0
0
0
0
0
0
0
0
0
0
0
0
0
0
0
0
0
0
0
0
0
0
0
0
0
0
0
0
0
0
0
0
0
0
0
0
0
0
0
0
0
0
0
0
0
0
0
0
0
0
0
0
0
0
0
0
0
0
1
0
0
0
0
0
0
0
0
0
0
0
0
0
0
0
0
0
0
0
0
0
0
0
0
0
0
0
0
0
0
0
0
0
0
0
0
0
0
0
1
0
0
0
0
0
0
0
0
0
0
0
0
1
1
0
0
0
0
0
0
0
0
0
0
0
0
0
0
0
0
0
0
0
0
0
0
0
0
0
0
0
0
0
0
0
0
0
0
0
0
0
0
0
0
0
0
0
0
0
0
0
0
0
0
0
0
0
0
0
0
0
0
0
0
0
0
0
0
0
0
0
0
0
0
0
0
0
0
0
0
0
0
0
0
0
0
0
0
0
0
0
0
0
0
0
0
0
0
0
0
0
0
0
0
0
1
0
1
0
0
0
0
0
0
0
1
1
1
1
0
0
0
0
0
0
0
0
0
0
0
0
0
0
0
0
0
0
0
0
0
0
0
0
0
0
0
0
1
1
0
0
0
0
0
0
0
0
0
0
0
0
0
0
0
0
0
0
1
0
0
0
0
0
0
0
1
1
0
1
1
0
0
1
0
0
0
0
0
0
0
1
0
1
0
0
0
0
0
0
0
0
0
0
0
0
0
0
0
0
0
0
0
0
0
0
0
0
0
0
0
1
1
0
0
0
1
1
0
0
0
0
1
0
0
1
0
1
0
0
0
0
0
1
0
0
0
1
0
0
0
0
0
0
0
0
0
0
0
0
0
0
0
0
0
0
0
0
0
0
0
0
0
0
0
1
0
0
0
0
0
0
1
0
0
0
0
0
0
0
0
0
0
0
0
0
0
0
0
0
0
0
0
0
0
0
0
0
0
0
0
0
1
0
1
0
0
0
0
0
0
0
1
0
0
0
0
0
0
0
0
0
0
0
1
0
0
0
0
0
0
0
0
0
1
0
0
0
0
0
0
0
1
0
0
0
0
0
0
0
1
0
0
0
0
0
0
0
0
0
0
0
0
0
0
0
0
0
0
0
1
0
1
0
0
0
0
0
1
0
0
0
0
0
0
0
0
0
0
0
0
0
0
0
0
0
0
0
0
0
0
0
0
0
1
0
1
0
0
0
0
0
0
0
0
0
1
0
0
0
0
0
1
0
0
0
0
0
0
0
0
0
0
0
0
0
0
0
1
0
0
0
0
0
0
0
0
1
0
0
0
0
0
0
0
0
0
0
0
0
0
0
0
0
0
0
0
0
0
0
0
0
0
0
0
0
0
0
1
0
0
0
0
0
0
0
0
0
0
0
0
0
0
0
0
1
0
0
0
0
0
0
0
0
1
0
0
0
0
0
0
0
0
0
1
0
0
0
0
0
1
0
0
0
0
0
0
0
0
0
0
0
0
0
0
0
0
0
0
0
1
0
0
0
0
0
0
1
0
0
0
0
0
0
0
0
1
0
0
0
0
0
0
0
0
0
0
0
0
0
0
1
0
0
1
0
0
0
1
0
0
0
0
0
0
0
0
0
0
0
0
0
0
0
0
1
0
0
0
0
0
0
0
0
0
0
1
0
1
0
0
0
0
0
0
1
0
0
0
0
0
0
0
0
0
0
0
0
0
0
0
0
0
0
0
0
0
0
0
0
0
0
0
1
1
0
0
0
0
0
0
1
0
0
0
0
0
0
0
0
0
0
0
0
0
1
0
0
0
0
0
0
0
1
0
0
0
0
0
0
0
0
0
0
0
0
0
0
0
0
0
0
0
0
0
0
0
0
0
0
0
1
0
0
0
0
0
0
0
0
0
0
1
0
0
1
0
0
0
0
0
0
0
0
0
0
0
0
0
0
0
0
0
0
0
0
0
0
0
0
0
0
0
0
0
1
0
0
0
0
0
0
0
1
0
0
0
0
0
0
0
1
0
0
0
0
1
0
0
0
0
0
0
0
0
0
0
0
1
0
1
0
0
0
1
0
				</DataArray>
				<DataArray type="Float64" Name="h" NumberOfComponents="1" Format="ascii">
1.2013901192
1.2013760895
1.2030784883
1.1992325758
1.2041467676
1.2033575793
1.2014046095
1.1986375191
1.2015040231
1.1960393219
1.1984524202
1.2018572633
1.2000187950
1.1967157487
1.1995801416
1.1995484559
1.1999590152
1.1970938550
1.2017806979
1.1970079761
1.2046824670
1.2019243516
1.2044800687
1.2060432249
1.1988402981
1.1996266791
1.2049070867
1.2131872355
1.2059371189
1.1957024435
1.1959628152
1.2042325667
1.2023524982
1.2033943433
1.2111459193
1.2075900462
1.2078849403
1.2062177312
1.2131128046
1.2059634108
1.2057007829
1.2128583759
1.2046019902
1.2077423700
1.2074218172
1.2112858596
1.2059234819
1.2132904268
1.2301754420
1.2289541741
1.2066785135
1.2093643294
1.2074796742
1.2196452053
1.2110967406
1.2060670674
1.2110154632
1.2160719724
1.2181720847
1.2179188314
1.2201465447
1.2188074218
1.2286867934
1.2091816022
1.2092244103
1.2164711255
1.2276292133
1.2274345532
1.2189730980
1.2175397031
1.2177784392
1.2113654822
1.2075086341
1.2212194960
1.2195088228
1.2154007282
1.2165372146
1.2207942140
1.2143037840
1.2149638456
1.2226826982
1.2181633081
1.2346109889
1.2260490984
1.2129271201
1.2175784263
1.2241245701
1.2246468663
1.2225420616
1.2338778936
1.2257060573
1.2156395278
1.2217869766
1.2328907452
1.2197038965
1.2177814623
1.2233475811
1.2130316168
1.2148096103
1.2243850877
1.2337308153
1.2229720542
1.2215502924
1.2145072125
1.1946322394
1.2266224487
1.2206422990
1.2314418232
1.2211522062
1.2197415816
1.2316897577
1.2328310065
1.2243153682
1.2269929755
1.2229948056
1.2300781113
1.2214991170
1.1947022595
1.2296085789
1.2243745494
1.1938260879
1.2232994450
1.2181153185
1.1899949941
1.2256563048
1.2312931155
1.2228959661
1.1906194414
1.2286212788
1.2309531039
1.2280642703
1.2210245642
1.2242838907
1.2295192721
1.1932809312
1.2283761420
1.1988717526
1.2303807632
1.2254293454
1.2017906468
1.1920319288
1.1909580408
1.2287136457
1.2039796888
1.2186204697
1.2266313559
1.2001770801
1.2334716516
1.1914755014
1.2337455956
1.1978727542
1.2302257984
1.2308942817
1.2326422091
1.2241120052
1.2316053154
1.2321707735
1.1935774810
1.2330973817
1.1898450021
1.2029665385
1.2328823784
1.1994260814
1.1911919623
1.1924793314
1.2328051593
1.2062085650
1.2011805447
1.1881959801
1.2317615587
1.2317171811
1.1882421506
1.2324546621
1.1943379190
1.2071583237
1.2329509922
1.2049982909
1.2352143897
1.2330557274
1.1921183163
1.2319801225
1.2093610358
1.1906271328
1.2190344847
1.1881763866
1.1867932335
1.2085162006
1.2331920036
1.1880163450
1.1871840389
1.2115527855
1.2331207661
1.1891617781
1.2108869495
1.2329153462
1.2347835884
1.1946341243
1.2138072060
1.2131818736
1.2344047899
1.1869607727
1.2210148729
1.1869650312
1.2336977400
1.2162587053
1.1941366856
1.2019679436
1.1988129349
1.2155648624
1.2052935478
1.2110077558
1.1883481925
1.1944918196
1.1946101356
1.2004828544
1.2130391354
1.2035345475
1.1955132763
1.2090544867
1.1915520284
1.2181700615
1.2341083980
1.2071373988
1.2313011393
1.2219982873
1.2359392523
1.2357899424
1.2274355400
1.2189524800
1.2350960133
1.2346950685
1.2328449760
1.2249014131
1.2352138378
1.2362289582
1.2294137654
1.2114202683
1.2035003945
1.1918937533
1.2061277298
1.2106066276
1.2008706167
1.1967941196
1.2060261497
1.1998953480
1.2028584608
1.1957033090
1.2095302932
1.2022450797
1.1980492624
1.2047783687
1.2090144656
1.1969870036
1.2134886706
1.2124011019
1.1973704134
1.2043757533
1.2014093114
1.1946044429
1.2326944260
1.2075361343
1.2217991907
1.2276781098
1.2319812335
1.2239280810
1.2366024211
1.2372626838
1.2177567198
1.2356451180
1.2351096019
1.2369900235
1.2077479904
1.2351664544
1.2289237125
1.2309864089
1.2184422314
1.2249218954
1.2299808139
1.2337076259
1.2209342512
1.2359687591
1.2365077565
1.2363588821
1.2375414319
1.2362058484
1.2340741154
1.2266043220
1.2046093619
1.1983208386
1.1993580847
1.2041653384
1.2108210164
1.2026947699
1.2018499349
1.2064017858
1.2097198266
1.2065356510
1.2037033149
1.2004250904
1.1973644614
1.2000421670
1.2030317550
1.2092188621
1.2113362142
1.2127120322
1.2054939338
1.2084354447
1.2053215199
1.1994205298
1.2213045416
1.2292474196
1.2277038678
1.2369930710
1.2169582910
1.2379092605
1.2333467018
1.2073618351
1.2361347693
1.2384854298
1.2078164135
1.2324419518
1.2237480772
1.2358159104
1.2378510755
1.2246964641
1.2266937877
1.2302681718
1.2376604430
1.2314623316
1.2349043659
1.2370480343
1.2386678379
1.2378091941
1.2176525270
1.2342880042
1.2204631806
1.2370219295
1.2049809505
1.2406911641
1.2061216799
1.2084930332
1.2064963804
1.2007934651
1.2098063269
1.2040998103
1.2051762039
1.2034453677
1.2016934687
1.2396603223
1.2224043689
1.2100583962
1.2341349141
1.2042405229
1.2016631452
1.2406525958
1.2056343860
1.2263508664
1.2074210303
1.2057198186
1.2367550014
1.2375208538
1.2409514541
1.2000356867
1.2084352613
1.2116070206
1.2046905585
1.2151371286
1.2205034225
1.2291471296
1.2024905187
1.2320893643
1.2388166772
1.2025177256
1.2394872620
1.2337586936
1.2326851866
1.2388570892
1.2057521767
1.2385441055
1.2206813562
1.2159764129
1.2367972917
1.2382614504
1.2066798611
1.2362643115
1.2073687021
1.2233216977
1.2293355889
1.2275555563
1.2039427623
1.2389622430
1.2168217700
1.2317319392
1.2124995782
1.2395319125
1.2346450469
1.2057153384
1.2034490862
1.2033598746
1.2071738401
1.2243142156
1.2378259368
1.2056237357
1.2354423932
1.2094374949
1.2387883277
1.2375620141
1.2197513853
1.2265369905
1.2046062063
1.2303403675
1.2186735299
1.2359078650
1.2229553923
1.2052299879
1.2403046443
1.2385987191
1.2059723166
1.2360048278
1.2224197818
1.2163946459
1.2122463117
1.2045524264
1.2387365639
1.2408439799
1.2318181566
1.2402523992
1.2029773883
1.2376236104
1.2085953217
1.2259725529
1.2410934476
1.2343115217
1.2397539580
1.2294377277
1.2318664388
1.2391195714
1.2374107719
1.2400396894
1.2182169091
1.2240786795
1.2333589158
1.2049289423
1.2371910359
1.2230936101
1.2055569736
1.2259949533
1.2284211278
1.2340590304
1.2377924300
1.2346724011
1.2400902183
1.2024835923
1.2185640379
1.2073319812
1.2122479404
1.2413155377
1.2398233219
1.2300866364
1.2407821346
1.2035437433
1.2104610048
1.2050092062
1.2393181134
1.2065102450
1.2339718606
1.2291381914
1.2228076494
1.2098890756
1.2051093925
1.2395836620
1.2051443685
1.2372004207
1.2062215890
1.2151164847
1.2292557673
1.2412195287
1.2050985337
1.2047129829
1.2055763214
1.2045778589
1.2096725451
1.2050888441
1.2396614463
1.2398413725
1.2401687690
1.2383250378
1.2038471594
1.2318195089
1.2023747426
1.2269300663
1.2190226929
1.2417595244
1.2049070975
1.2057117867
1.2035293807
1.2050103338
1.2410172224
1.2357545635
1.2027171709
1.2368396539
1.2385244954
1.2042050581
1.2033585050
1.2071741986
1.2054825882
1.2262493053
1.2045613263
1.2126146560
1.2307025276
1.2038505197
1.2075627816
1.2343107402
1.2051450710
1.2200111105
1.2047061001
1.2352619866
1.2209742927
1.2050967665
1.2045341966
1.2075653130
1.2272044418
1.2255497484
1.2409320042
1.2048795680
1.2380910705
1.1992445661
1.2310700930
1.2161688592
1.2064108813
1.2363936071
1.2050087753
1.2325855977
1.2052402574
1.2051064639
1.2123984707
1.2049008934
1.2050104699
1.2045544067
1.2161697944
1.2096752576
1.2107980423
1.2038608860
1.2050770155
1.2077320691
1.2046398146
1.2035024292
1.2062236525
1.2093264431
1.2018295989
1.2411723054
1.2059103661
1.2050957610
1.2166108591
1.2052320376
1.2192681496
1.2084266880
1.2002157932
1.2389249366
1.2405081461
1.2052228077
1.1999041430
1.2398256715
1.2050874318
1.2143118010
1.2374148155
1.2054839596
1.2291407525
1.2332062931
1.2401058707
1.2046719708
1.2297152223
1.2374069627
1.2322019934
1.2224220091
1.2058398330
1.2147380330
1.2239942580
1.2343118909
1.2049334362
1.2039126533
1.2340628748
1.2368404802
1.1943227703
1.2277679942
1.2047371611
1.2400483208
1.2359114838
1.2259971361
1.1975326999
1.2402652437
1.2152214760
1.2034578777
1.2158452755
1.2040993457
1.2185664956
1.2064565436
1.2062302465
1.2413977359
1.2062316860
1.2127273695
1.2041448118
1.2407663623
1.2039662521
1.2318213334
1.2089806193
1.2151743606
1.2398884476
1.2386029710
1.1760902281
1.2142140467
1.2052350750
1.2390971216
1.1899765790
1.2239947568
1.2043201777
1.2337954943
1.2052375787
1.2046725050
1.2064131755
1.2048785370
1.2413075119
1.2222469064
1.2055639856
1.2050904772
1.2038714832
1.1825774414
1.2406006896
1.2052262995
1.2095561384
1.2151746353
1.1938208946
1.2139330546
1.2084292668
1.2045339595
1.2052243038
1.2050942323
1.2390780330
1.2411303879
1.2375257015
1.2310721319
1.2050707330
1.2161571214
1.2154951848
1.2057899088
1.2416144606
1.2381124311
1.2166113612
1.2122250543
1.2405275243
1.1812735682
1.2037800212
1.2061441668
1.2044407838
1.1710320291
1.2046009643
1.2077577360
1.2046390845
1.2379483143
1.2038353248
1.2068678701
1.2049189346
1.2359272754
1.2399347600
1.2415580005
1.2364215628
1.1687764884
1.2039984591
1.2055031439
1.2040793203
1.2417591367
1.2421912752
1.2123989491
1.2159771324
1.2136953048
1.2028070235
1.2393261963
1.2011826332
1.2084468454
1.2429058287
1.2420067697
1.2075206114
1.2089978720
1.2402926276
1.2099147711
1.2120291830
1.1928836312
1.2410591328
1.2424517019
1.2416254404
1.2063859993
1.2021294347
1.1840050409
1.1896991488
1.1991520589
1.2410007958
1.2417154359
1.2387049502
1.2400417342
1.1678572469
1.2423044416
1.2427284256
1.1779629099
1.2411301664
1.2402949752
1.1760881776
1.2433354736
1.2059104500
1.2418469664
1.1988549492
1.2012303102
1.2435088417
1.1899750656
1.2427234937
1.2425555312
1.1999016345
1.2418954397
1.1966735164
1.1938391405
1.2413409925
1.2420988592
1.2043850658
1.2025034027
1.2024077908
1.2023959906
1.2024870445
1.2010429115
1.2018619103
1.1984585105
1.1994823910
1.2043817148
1.2033637965
1.2041399502
1.2043728652
1.2014938936
1.1995892617
1.2014115116
1.1967582279
1.1994760757
1.2010371351
1.1993865667
1.1970977716
1.1992297423
1.2030734453
1.2017984570
1.1957069694
1.1990013350
1.2017059226
1.1986289904
1.1996272240
1.1988425400
1.1960358093
1.2007720430
1.2000094132
1.2047799744
1.2012784809
1.2028994061
1.1967536198
1.1959659923
1.1993788001
1.2033953343
1.2023613597
1.2042538221
1.2036072300
1.2059666141
1.2122771558
1.1999577988
1.1995477199
1.2046270386
1.2131367330
1.2017019465
1.1989975519
1.2057122702
1.1967120047
1.1970085580
1.2047771651
1.2044542175
1.2138530379
1.2019107695
1.2078612827
1.2007615742
1.2046803367
1.2028795264
1.2033839544
1.2147299359
1.2132870625
1.2012759593
1.2074255377
1.2066775596
1.2059521679
1.2131654808
1.2060394717
1.2059208712
1.2110279637
1.2109085678
1.2048884972
1.2093701788
1.1976993791
1.2122462450
1.2128565935
1.2112880924
1.2035963061
1.2074992399
1.2138577746
1.2302906172
1.2273033198
1.2033611797
1.2078609380
1.2096520721
1.2147230485
1.2075851186
1.2092534545
1.2061851545
1.2129415175
1.2111482807
1.2286710303
1.2274134496
1.2146423963
1.2078852291
1.2091873277
1.2128592567
1.2155568302
1.2166146568
1.2077147477
1.2212027041
1.2179565422
1.2113642779
1.2075342714
1.2173910433
1.2102962154
1.2094169730
1.2093705699
1.2203590922
1.2112905804
1.2128603835
1.2165312780
1.2177715079
1.2210458280
1.2194962999
1.2108758906
1.2075146235
1.2189679888
1.2097851319
1.1976969322
1.2175354568
1.2096523771
1.2129461206
1.2164991243
1.2146412060
1.2259913605
1.2148401317
1.2290084102
1.2301936870
1.2093562804
1.2273241284
1.2112653546
1.2181653887
1.2260302398
1.2163455559
1.2303107116
1.2289770974
1.2201511131
1.2188113574
1.2074816485
1.2216692067
1.2210612912
1.2181808941
1.2164316483
1.2179663786
1.2136539130
1.2087078757
1.2155629900
1.2097873604
1.2145907644
1.2110975693
1.2192173666
1.2173950711
1.2203639402
1.2060470258
1.2180851258
1.2193040215
1.2102707588
1.2196539749
1.2166225146
1.2179285036
1.2156590759
1.2160766588
1.2093828445
1.2217803789
1.2260099670
1.2145034109
1.2148285093
1.2163497819
1.2112929833
1.2148459027
1.2229678044
1.2277015918
1.2234569214
1.2246966028
1.2164644900
1.2337207794
1.2276506147
1.2126438362
1.2130620634
1.2215394347
1.2177933678
1.2163041790
1.2290321582
1.2243803683
1.2266064224
1.2164856623
1.2343679181
1.2180868303
1.2211422293
1.2328128139
1.2216746166
1.2193150027
1.2243048900
1.2145964532
1.2153863624
1.2316694252
1.2164401049
1.2208020916
1.2086833790
1.2254301508
1.2136370641
1.2316649050
1.2197452876
1.2192235676
1.2234639047
1.2343723686
1.2197527693
1.2215433585
1.2175643150
1.2232930948
1.2226601069
1.2126467777
1.1965280802
1.2163102474
1.2247107321
1.2129047648
1.2149405603
1.2241285384
1.2346168970
1.2226866475
1.2214918597
1.2143075394
1.2277242840
1.1938272574
1.2246589355
1.2112703759
1.2254348846
1.2210298537
1.2303211581
1.1966693447
1.2312811249
1.2239094845
1.2268273200
1.2225537052
1.2196969007
1.2329109275
1.2306629416
1.2338910356
1.2257125956
1.2298431067
1.2157947032
1.2256393606
1.2228796413
1.2316954001
1.2309490985
1.2215552008
1.2321931178
1.2302595843
1.2197602571
1.1965280627
1.2226740080
1.2284796762
1.1932842620
1.2283703413
1.2242674558
1.1946314092
1.2233521781
1.2186300560
1.2286848594
1.1909617091
1.2257062586
1.1966705875
1.2306675810
1.2270042727
1.2314558227
1.1980146866
1.2157980457
1.2268366831
1.2230086018
1.1914784881
1.2303490159
1.2287107468
1.1892017361
1.2300792165
1.2239212074
1.2266284683
1.2298529576
1.2206372112
1.1921619827
1.2162041883
1.2285974718
1.2310371118
1.2321995780
1.2284940995
1.1966100112
1.2292969335
1.2323606700
1.2251917328
1.2243919048
1.2302880746
1.2302238810
1.1946993048
1.2264869932
1.2296161938
1.1942375113
1.1978714278
1.2308930523
1.2241088561
1.1980190659
1.1891974980
1.2011790046
1.1924814334
1.2257254041
1.2326258078
1.1921583178
1.1903792665
1.2339704019
1.2268366065
1.2287113836
1.1899905387
1.2286231981
1.2029692134
1.1924895823
1.2181088737
1.2280679705
1.1932440346
1.1994220722
1.2273849365
1.2328813855
1.1906156127
1.2330956866
1.2251943224
1.1988779323
1.2295208659
1.2316692935
1.2261255729
1.2323685230
1.2306771959
1.2303815103
1.2324530036
1.1943715074
1.1959084857
1.2254322048
1.1942337852
1.2286217359
1.1966090342
1.2310385286
1.2161956231
1.2264893804
1.2317600834
1.2276346655
1.2292984744
1.2317153040
1.1943399726
1.2337478304
1.1906325697
1.2245969832
1.1924876892
1.1903753345
1.2331008377
1.2321438779
1.2330019727
1.2039713311
1.2334736354
1.2001790546
1.1921227174
1.2339731613
1.1932405672
1.2268509269
1.1920509036
1.1920289030
1.2319782362
1.2273868957
1.2050081544
1.2264715925
1.2017900368
1.2326267506
1.1903366760
1.1880215417
1.2316056187
1.2321723114
1.1959063481
1.2237548233
1.2316703942
1.1920050482
1.1943694618
1.2261392151
1.1881818904
1.2306775547
1.2326439701
1.1935748104
1.2276367829
1.2085341467
1.2217802836
1.2329127001
1.2061930216
1.1903319108
1.2331045503
1.2347811382
1.1920456436
1.2330037766
1.2264740241
1.2335324630
1.1885505648
1.2321448309
1.2246032490
1.1897773263
1.2331175887
1.2285028792
1.1911873213
1.2328076607
1.2109025617
1.2348903987
1.1898397809
1.2210161468
1.2333596755
1.1882367184
1.1869709462
1.2071434424
1.2336943985
1.2237603192
1.1881906614
1.1869665722
1.1920012963
1.2131928269
1.2334671091
1.2330585662
1.1937962060
1.1885450901
1.1897727062
1.1883540221
1.2348928991
1.2335348129
1.1929528171
1.2350639352
1.2093459723
1.2285049460
1.2329537623
1.2217784157
1.1893843209
1.1883335957
1.2352176690
1.1944967773
1.2155711866
1.2115417790
1.2346911560
1.2333627963
1.1871782502
1.2334703089
1.2339343756
1.2341130885
1.2190321022
1.1867872955
1.2331949237
1.2181728797
1.1957093572
1.2028566357
1.1961174451
1.1998949927
1.2138011913
1.1883277025
1.2152692996
1.1905656744
1.2060317562
1.1970941251
1.1937920075
1.2114231423
1.1891556680
1.1905504250
1.2350676748
1.1946303810
1.1931001580
1.2014063590
1.1984078750
1.2134888535
1.2043773009
1.1969921679
1.2095362458
1.1893785497
1.1918994433
1.1929475137
1.2350435464
1.2158192506
1.2162565241
1.2339382458
1.2340512832
1.2077553665
1.2341167435
1.2309600113
1.2209359013
1.2363535649
1.2359577829
1.2361766650
1.2265931704
1.2177582999
1.2351496319
1.2344087921
1.2326673747
1.2239249384
1.2356406206
1.2364525215
1.2365970814
1.2289039473
1.2110013864
1.2041642666
1.1994346391
1.1915458291
1.2065379472
1.2108203176
1.1970903874
1.2152696366
1.1961145978
1.1930755132
1.2145017350
1.2018507640
1.1983273927
1.1905597480
1.2052884171
1.1988132562
1.2019710399
1.1941302732
1.2090456096
1.2030303928
1.1994264343
1.1905445613
1.2053221829
1.2092197721
1.1955075666
1.2130360541
1.2127102128
1.2006243097
1.1958054957
1.2035347325
1.1984051293
1.2004866018
1.1930942890
1.2328721370
1.2078187401
1.2149774102
1.2204656605
1.2266875748
1.2314414177
1.2249062158
1.2364595098
1.2362317938
1.2376519251
1.2189518295
1.2352188435
1.2374434145
1.2348834602
1.2370353720
1.2071286811
1.2350480371
1.2351110821
1.2294346590
1.2313290063
1.2169592086
1.2237483667
1.2292329254
1.2333236493
1.2219981399
1.2357983497
1.2361812260
1.2369862822
1.2158215916
1.2359428657
1.2378424307
1.2361180681
1.2376214673
1.2341304900
1.2274469831
1.2049808852
1.2015704415
1.1967873739
1.1930696041
1.2008006033
1.2035028441
1.2106054573
1.2134024103
1.2034476699
1.2145039323
1.2008699665
1.2064967064
1.2098044417
1.2061251460
1.1994305132
1.2042409417
1.2016698484
1.1957995236
1.1985057689
1.2022473076
1.2090113146
1.2116044742
1.2025784054
1.2124017362
1.2006204558
1.2057200265
1.2084341301
1.2047787088
1.1980429604
1.2197524459
1.2299973220
1.2265350056
1.2365143947
1.2184421806
1.2378147742
1.2337325284
1.2073684768
1.2362221007
1.2376313709
1.2384654850
1.2387763627
1.2139373366
1.2075321777
1.2317185116
1.2249245304
1.2354271042
1.2375472012
1.2233230432
1.2276870474
1.2293276353
1.2372684203
1.2149806535
1.2385111801
1.2320045466
1.2351311903
1.2370011010
1.2388462506
1.2382506838
1.2159750403
1.2337427712
1.2217986828
1.2367841502
1.2374509234
1.2402981447
1.2259706420
1.2122514252
1.2360029299
1.2046103410
1.2015653764
1.2406250685
1.2400640535
1.2059716199
1.2240559938
1.2085926613
1.2064006567
1.2350525930
1.2387338373
1.2409633160
1.1993510114
1.2097210165
1.2134060542
1.2045555942
1.2052303431
1.2026926777
1.2186716193
1.2171209031
1.2318646014
1.2029847383
1.2304264529
1.2381279028
1.2033573973
1.2399421285
1.2237878717
1.2104577907
1.2349337893
1.2037037060
1.2004182364
1.2406180535
1.2404296553
1.2055567681
1.2274356748
1.2073299677
1.2054939675
1.2361369039
1.2380354138
1.2409216157
1.1984995741
1.2084352820
1.2113383493
1.2040967047
1.2049303283
1.2025735301
1.2163058176
1.2195097926
1.2302798943
1.2010494967
1.2329599187
1.2392228376
1.2035506034
1.2039172880
1.2396477964
1.2130229972
1.2343072483
1.2118793358
1.2392064283
1.2318127649
1.2386768113
1.2055800915
1.2047117599
1.2035490783
1.2383172149
1.2023761493
1.2078271204
1.2190212382
1.2385215656
1.2176529265
1.2057483710
1.2370358658
1.2104165849
1.2378179023
1.2065089182
1.2357458932
1.2073606107
1.2246972106
1.2302801272
1.2052248649
1.2262481412
1.2042048570
1.2393036070
1.2151131142
1.2324592271
1.2127262582
1.2395728995
1.2339633172
1.2384747100
1.2067946739
1.2060233041
1.2027437421
1.2391174105
1.2029173936
1.2077609268
1.2228070223
1.2379201119
1.2139412034
1.2062312839
1.2358333607
1.2098881884
1.2384948491
1.2371924125
1.2213037404
1.2277094370
1.2050980674
1.2292520914
1.2200369497
1.2384159377
1.2365172880
1.2396823515
1.2209729643
1.2240582050
1.2272026231
1.2315604555
1.2051760973
1.2404801231
1.2356729110
1.2389300317
1.2404727250
1.2203433868
1.2061215216
1.2366538599
1.2239414878
1.2171227323
1.2272556446
1.2130199290
1.2260427523
1.2040966458
1.2391323712
1.2409714773
1.2327787604
1.2389233910
1.2366505361
1.2363924092
1.2402198494
1.2016862635
1.2162675684
1.2381303921
1.2084954866
1.2151390517
1.2163933731
1.2411686250
1.2405048986
1.2272571194
1.2325839611
1.2409568701
1.2350548808
1.2400682692
1.2401863955
1.2033517642
1.2122565629
1.2304286139
1.2328322247
1.2408367146
1.2224072096
1.2394011766
1.2378761806
1.2376218887
1.2401223028
1.2186101579
1.2205051369
1.2248394111
1.2338107909
1.2046895128
1.2406349278
1.2368196619
1.2394787686
1.2226544967
1.2056342969
1.2375236606
1.2273520404
1.2143229129
1.2143213972
1.2289320821
1.2040914317
1.2396653254
1.2406582915
1.2348324242
1.2382330519
1.2352794414
1.2398725670
1.2010430603
1.2201676187
1.2294356596
1.2367569811
1.2074224210
1.2130220388
1.2413026514
1.2401200406
1.2291498107
1.2308442335
1.2411538561
1.2329616235
1.2392253776
1.2406007686
1.2025105917
1.2100618431
1.2274372019
1.2341374606
1.2051962209
1.2389735056
1.2390963942
1.2407650493
1.2391261306
1.2066802132
1.2045742587
1.2346578120
1.2029164000
1.2297142657
1.2302996048
1.2243145508
1.2094385615
1.2413965172
1.2046378966
1.2047081387
1.2049605735
1.2395425184
1.2041010338
1.2054145745
1.2405267903
1.2375718826
1.2030309130
1.2353407615
1.2394307471
1.2039172765
1.2034464805
1.2076493350
1.2076503132
1.2062153277
1.2168234233
1.2303477710
1.2412533698
1.2046064021
1.2095750979
1.2036607607
1.2057479091
1.2147358513
1.2283793730
1.2037208757
1.2021759853
1.2089411845
1.2039780184
1.2360261843
1.2051550912
1.2394998723
1.2398877741
1.2403141986
1.2385525989
1.2044965521
1.2326963970
1.2027416859
1.2273582748
1.2206814229
1.2095755421
1.2416129010
1.2041729753
1.2060193224
1.2050455439
1.2392153136
1.2034581122
1.2052472710
1.2410327668
1.2362760690
1.2037173069
1.2368830190
1.2387071201
1.2039428514
1.2035469083
1.2077612957
1.2036073162
1.2056723025
1.2130273115
1.2275585592
1.2415020906
1.2052252753
1.2032929471
1.2067903188
1.2039048549
1.2114404804
1.2310819857
1.2050837623
1.2030340103
1.2072402985
1.2345426180
1.2125983210
1.2046325328
1.2054148348
1.2203443473
1.2036537867
1.2356741654
1.2182180066
1.2114444380
1.2125798522
1.2216048882
1.2024610080
1.2058178111
1.2088459910
1.2407289950
1.2043356098
1.2279981891
1.2025954735
1.2072431496
1.2089791886
1.2280001964
1.2302821689
1.2260442200
1.2029502270
1.2391288461
1.2406317091
1.2200104045
1.2163083807
1.2407328491
1.2060365591
1.2045284868
1.2384170873
1.2380397532
1.2179298335
1.2011726801
1.2200346490
1.2052940718
1.2315620313
1.2320913300
1.2162260454
1.2173233081
1.2397504213
1.2113586135
1.1960713365
1.2407036809
1.2399514674
1.2195112540
1.2369150289
1.2410684078
1.2071630430
1.2010919915
1.2369161852
1.2392920201
1.2051958276
1.2146825887
1.2332719201
1.2050711761
1.2049573058
1.2388182431
1.2134330420
1.2041662193
1.2052472325
1.2181037357
1.2032864380
1.2338121777
1.2162272006
1.2310686647
1.2089445241
1.2121605888
1.2240803733
1.2041739773
1.2060793127
1.2089975309
1.2043108680
1.2015223493
1.2062172549
1.2107705018
1.2229536182
1.2300885882
1.2230948257
1.2012313085
1.2409597608
1.2380899285
1.2409614099
1.2067402963
1.2048031205
1.2371921192
1.2164846884
1.1998987773
1.2055989610
1.2289336476
1.2410654890
1.2181030112
1.2187142731
1.2096452709
1.1988564605
1.2394025140
1.2407848138
1.2055575566
1.1983077628
1.2377937587
1.2401883133
1.2051536728
1.2148224213
1.2346739028
1.2053402661
1.2050407957
1.2378821249
1.2056732470