<VTKFile type="UnstructuredGrid" version="0.1">
	<UnstructuredGrid>
		<Piece NumberOfPoints="1862" NumberOfCells="3498">
			<CellData>
				<DataArray type="Int32" Name="type" NumberOfComponents="1" Format="ascii">
0
0
0
0
0
0
0
0
0
0
0
0
0
0
0
0
1
0
0
1
0
0
0
0
0
0
0
0
0
0
0
0
0
1
0
0
0
0
0
0
0
0
0
0
0
0
0
0
0
0
1
0
0
0
0
0
0
0
0
0
0
1
0
0
0
0
0
0
0
0
0
0
0
0
0
0
0
0
0
0
0
0
0
0
0
0
0
0
0
0
0
0
0
0
0
0
0
0
0
0
0
0
0
0
0
0
0
0
0
0
0
0
0
0
0
0
0
0
0
0
0
0
0
1
0
0
0
0
0
0
0
0
0
0
0
0
0
0
0
0
0
0
0
0
0
0
0
0
0
0
0
1
0
1
1
0
0
0
0
0
0
0
0
0
0
0
0
0
1
0
1
0
0
0
0
1
0
0
0
0
0
0
0
0
1
1
0
0
0
0
0
1
0
0
0
0
0
0
0
0
1
0
0
0
0
0
0
0
0
0
0
0
0
0
0
0
0
0
0
0
0
0
0
0
0
0
0
0
0
0
0
0
0
1
0
0
0
0
0
0
0
0
0
0
0
0
0
0
0
0
0
0
0
0
0
0
0
0
0
0
0
0
0
0
0
0
0
0
0
0
0
0
0
0
0
0
0
0
0
0
0
1
0
0
0
0
0
0
0
0
0
0
0
0
0
0
0
0
0
0
0
0
0
0
0
0
0
0
0
0
0
0
0
0
0
0
0
0
0
0
0
0
0
0
0
0
0
0
0
0
0
0
1
0
0
0
0
0
0
0
0
0
0
0
0
0
0
0
0
0
0
0
0
0
0
0
0
0
0
0
0
0
0
0
0
0
0
0
0
0
0
0
0
0
0
0
0
0
0
0
0
0
0
0
0
0
0
0
0
0
1
0
0
0
0
0
0
0
0
0
0
0
0
0
0
0
0
0
0
0
0
0
0
0
0
0
0
0
0
0
0
0
0
0
0
0
0
0
0
0
0
0
0
0
0
0
0
0
0
0
0
0
0
0
0
0
0
0
0
0
0
0
0
0
0
0
0
0
0
0
0
0
0
0
0
0
0
0
0
0
0
0
0
0
0
0
0
0
0
0
0
0
0
0
0
0
0
0
0
0
0
0
0
0
0
0
0
0
0
0
0
0
0
0
0
0
0
0
0
0
0
0
0
0
0
0
0
0
0
0
0
0
0
1
0
0
0
0
0
0
0
0
0
0
0
0
0
0
0
0
0
0
0
1
0
0
0
0
0
0
0
0
0
0
0
0
0
0
0
0
0
0
0
0
0
0
0
0
0
0
0
0
0
0
0
0
0
0
0
0
0
0
0
0
0
0
0
0
0
0
0
0
0
0
0
0
0
1
0
0
0
0
0
0
0
0
0
0
0
0
0
0
0
0
0
0
0
0
0
0
0
1
0
0
0
0
0
0
0
0
0
0
0
0
0
0
0
0
0
0
0
1
0
0
0
1
0
0
0
0
0
0
0
0
0
0
0
0
0
0
0
0
0
0
0
0
0
0
0
0
0
1
0
0
0
0
0
0
0
1
0
0
0
0
0
0
0
0
0
0
0
0
0
0
0
0
0
0
0
0
0
0
0
0
0
0
1
0
0
0
0
0
0
0
1
0
0
0
0
0
0
1
0
0
0
0
0
0
0
0
0
0
0
0
0
0
0
0
0
0
0
0
0
0
0
0
0
0
0
0
0
0
0
0
0
0
0
0
0
0
1
0
0
0
0
0
1
0
0
0
0
0
0
0
1
0
0
0
0
0
0
0
0
0
0
0
0
0
1
0
0
0
0
0
0
0
0
0
0
0
0
0
0
0
0
0
0
0
0
0
0
0
0
0
0
0
0
0
0
0
0
0
0
0
0
0
0
0
0
0
0
0
0
0
0
0
0
0
0
0
0
0
1
0
0
0
0
0
0
0
0
0
0
0
0
0
0
0
0
0
0
0
1
0
0
0
0
0
0
0
0
0
1
0
0
0
0
0
0
0
0
0
0
0
0
0
0
0
0
0
0
0
0
0
0
0
0
0
0
0
0
0
1
0
1
0
0
0
0
0
0
0
0
0
0
0
0
0
0
0
0
0
0
0
0
0
0
0
0
0
0
0
1
0
0
0
1
0
0
0
0
0
0
0
0
0
0
0
0
0
0
0
0
0
0
0
0
0
0
0
0
0
0
0
0
1
0
0
0
0
0
0
0
0
0
0
0
0
0
0
0
0
0
0
0
0
0
0
0
0
0
1
0
0
0
0
0
0
0
0
0
0
0
0
0
0
0
0
0
0
0
0
0
0
0
1
0
0
0
0
0
0
1
0
0
0
0
0
0
0
0
0
0
0
1
0
0
0
0
0
0
0
0
0
0
0
0
0
0
0
0
0
0
0
0
1
0
0
0
0
0
0
0
0
0
0
0
1
0
0
0
0
0
0
0
0
0
0
0
0
0
0
0
0
0
0
0
0
0
1
0
0
0
0
0
0
0
0
0
1
1
0
1
0
1
0
0
0
0
0
0
0
0
0
0
0
1
0
0
0
0
0
1
1
0
0
0
0
0
0
1
0
0
0
0
0
1
1
1
0
0
0
0
0
0
0
0
0
0
0
0
1
1
0
0
1
0
0
0
0
0
1
0
0
0
1
0
1
0
0
0
0
0
0
0
1
0
0
0
0
0
0
0
1
0
0
1
0
0
0
0
0
0
0
0
0
0
0
0
0
0
0
1
0
0
0
0
0
0
0
0
0
0
0
0
0
0
0
0
0
0
0
0
0
0
0
0
0
0
0
0
0
0
0
0
0
0
0
0
1
0
0
0
0
0
0
1
0
0
0
1
0
0
0
0
0
0
0
0
0
0
0
1
0
0
0
0
0
0
0
0
0
0
0
0
0
0
0
0
0
0
0
0
0
0
0
0
0
0
0
0
0
0
0
0
0
0
0
0
0
0
0
0
1
1
0
0
0
0
0
0
0
0
0
0
0
0
0
1
0
0
0
0
0
0
0
0
0
0
0
0
0
0
0
0
0
0
0
0
0
0
0
0
0
0
0
0
0
0
0
0
0
0
0
0
0
0
0
0
0
0
0
0
0
0
0
0
0
0
0
0
0
0
0
0
0
0
0
0
0
0
0
0
0
0
0
0
0
0
0
0
1
1
0
0
0
0
0
0
0
0
1
0
0
0
0
0
0
0
0
0
0
0
0
0
0
0
0
0
0
0
0
0
0
0
1
0
0
0
0
0
0
0
0
0
0
0
0
0
0
0
0
1
0
0
0
0
0
0
0
0
0
0
0
0
0
0
0
0
0
0
0
0
0
0
0
0
0
0
0
0
0
0
0
0
0
0
0
0
0
0
0
0
0
0
0
0
0
0
0
0
0
0
0
0
0
0
0
0
0
0
0
0
0
0
0
0
0
0
0
0
0
0
0
0
0
0
0
0
0
0
0
0
0
0
0
0
0
0
0
0
0
0
1
1
0
0
0
0
0
1
0
0
0
0
0
0
0
0
0
0
0
0
1
0
0
0
0
0
0
0
0
0
0
0
0
0
0
0
0
0
0
0
0
0
0
0
0
0
0
0
0
0
0
0
0
0
0
0
0
0
0
0
0
0
0
0
0
0
0
0
0
0
0
0
0
0
1
0
1
0
0
0
0
0
0
0
0
0
0
0
0
0
0
0
0
0
0
1
0
0
0
0
0
0
0
0
0
0
0
0
0
0
0
0
0
0
0
0
0
0
0
0
0
0
0
0
0
0
0
0
0
0
0
0
0
0
0
0
0
0
0
0
0
0
0
0
0
0
0
0
0
0
0
0
0
0
0
0
0
0
0
0
0
0
0
0
0
0
1
0
0
0
0
0
0
0
0
0
0
1
0
0
0
0
0
0
0
0
0
0
0
0
0
0
0
0
0
0
0
0
0
0
0
0
0
0
0
0
0
0
0
0
0
0
0
0
0
1
0
0
0
0
0
0
0
0
0
0
0
0
0
0
0
0
0
0
0
0
0
0
0
0
0
0
0
0
0
0
0
0
0
0
0
0
0
0
0
0
0
0
0
0
0
0
0
0
0
0
0
0
0
0
0
0
0
0
0
0
0
0
0
0
0
0
0
0
0
0
0
0
0
0
0
0
0
0
0
0
0
1
0
0
0
0
0
0
0
0
0
0
0
0
0
0
0
0
0
0
0
0
0
0
0
0
0
0
0
0
0
0
0
0
0
0
0
0
0
0
0
0
0
0
0
0
0
0
0
0
0
0
0
0
0
0
0
0
0
0
0
0
0
0
0
0
0
0
0
0
0
0
0
0
0
0
0
0
0
0
0
0
0
0
0
0
0
0
0
0
0
0
0
0
0
0
0
0
0
0
0
0
0
0
0
0
0
0
0
0
0
0
0
0
0
0
0
0
0
0
0
0
0
0
0
1
0
0
0
0
0
0
0
0
0
0
0
0
0
0
0
0
0
0
0
0
0
0
0
0
0
0
0
0
0
0
0
0
0
0
0
0
0
0
0
0
0
0
0
0
0
0
0
0
0
0
0
0
0
0
0
0
0
0
0
0
0
0
0
0
0
0
0
0
0
0
0
0
0
0
0
0
0
0
0
0
0
1
0
0
0
0
0
0
0
1
0
0
0
0
0
0
0
0
0
0
0
0
0
0
0
0
0
0
0
0
0
0
0
0
0
0
0
0
0
0
0
0
0
0
0
0
0
1
0
0
0
0
0
0
0
0
0
0
0
0
0
0
0
0
0
0
0
0
0
1
0
0
0
0
0
0
0
0
0
0
0
0
1
1
0
0
0
0
0
0
0
0
0
0
0
0
0
0
0
1
1
0
1
0
0
0
0
0
0
0
0
0
1
0
0
0
0
0
0
1
0
0
0
0
0
0
0
0
0
0
1
0
0
0
0
1
0
1
0
0
0
0
0
0
0
1
0
0
0
1
0
0
0
1
0
1
1
0
0
1
1
0
0
0
1
0
0
0
1
0
0
0
0
0
0
0
0
0
1
0
0
0
0
0
0
1
0
0
0
0
0
0
0
0
0
0
0
0
0
0
0
0
0
0
0
0
0
0
0
0
0
0
0
1
0
0
1
0
0
0
0
0
0
0
0
0
0
0
0
0
0
0
0
0
0
1
0
0
1
0
0
0
0
0
0
0
0
0
0
0
1
0
0
1
0
0
0
0
0
0
0
0
0
0
0
1
1
0
0
0
0
0
0
0
0
0
0
0
0
1
0
0
0
0
0
0
0
0
0
0
0
0
0
0
0
0
0
1
0
0
0
0
0
0
0
0
0
0
0
0
0
0
0
0
0
1
0
0
0
0
0
0
0
0
0
0
0
0
0
0
0
0
0
0
0
0
0
0
0
0
0
0
0
0
0
0
0
0
0
0
0
0
0
0
0
0
1
0
0
0
0
0
0
0
0
0
0
0
0
0
0
0
0
0
0
0
0
0
0
0
0
0
0
0
0
0
0
0
0
0
0
0
0
0
0
0
0
0
0
0
0
0
1
0
0
0
0
0
0
0
0
0
0
0
0
0
0
0
0
0
0
0
0
0
0
0
0
0
0
0
0
0
0
0
0
0
0
0
0
0
0
0
0
0
0
0
0
0
0
0
1
0
0
0
0
0
0
0
0
0
0
1
0
0
0
0
0
0
0
0
0
0
0
0
0
0
0
1
0
0
1
0
0
0
0
0
0
0
0
0
0
0
0
0
0
0
0
0
0
0
0
0
0
0
1
0
0
0
0
0
0
0
0
0
0
0
0
0
0
0
0
0
0
0
0
0
0
0
0
0
0
0
0
0
0
0
0
0
0
0
1
0
0
0
0
0
0
0
0
0
0
0
0
0
0
0
0
0
0
0
0
0
0
0
0
0
0
0
0
0
0
0
0
0
0
0
0
0
0
0
0
0
0
0
0
0
0
0
0
0
0
0
0
0
0
0
0
0
0
0
0
0
0
0
0
0
0
0
0
0
0
0
0
0
0
0
0
1
0
0
0
0
0
0
0
0
0
0
0
0
0
0
0
0
0
0
0
0
0
0
0
0
0
0
0
0
0
0
0
0
0
0
0
0
0
0
0
1
0
0
0
0
0
0
0
0
0
0
0
0
1
1
0
0
0
0
0
0
0
0
0
0
0
0
0
0
0
0
0
0
0
0
0
0
0
0
0
0
0
0
0
0
0
0
0
0
0
0
0
0
0
0
0
0
0
0
0
0
0
0
0
0
0
0
0
0
0
0
0
0
0
0
0
0
0
0
0
0
0
0
0
0
0
0
0
0
0
0
0
0
0
0
0
0
0
0
0
0
0
0
0
0
0
0
0
0
0
0
0
0
0
0
0
1
0
1
0
0
0
0
0
0
0
1
1
1
1
0
0
0
0
0
0
0
0
0
0
0
0
0
0
0
0
0
0
0
0
0
0
0
0
0
0
0
0
1
1
0
0
0
0
0
0
0
0
0
0
0
0
0
0
0
0
0
0
1
0
0
0
0
0
0
0
1
1
0
1
1
0
0
1
0
0
0
0
0
0
0
1
0
1
0
0
0
0
0
0
0
0
0
0
0
0
0
0
0
0
0
0
0
0
0
0
0
0
0
0
0
1
1
0
0
0
1
1
0
0
0
0
1
0
0
1
0
1
0
0
0
0
0
1
0
0
0
1
0
0
0
0
0
0
0
0
0
0
0
0
0
0
0
0
0
0
0
0
0
0
0
0
0
0
0
1
0
0
0
0
0
0
1
0
0
0
0
0
0
0
0
0
0
0
0
0
0
0
0
0
0
0
0
0
0
0
0
0
0
0
0
0
1
0
1
0
0
0
0
0
0
0
1
0
0
0
0
0
0
0
0
0
0
0
1
0
0
0
0
0
0
0
0
0
1
0
0
0
0
0
0
0
1
0
0
0
0
0
0
0
1
0
0
0
0
0
0
0
0
0
0
0
0
0
0
0
0
0
0
0
1
0
1
0
0
0
0
0
1
0
0
0
0
0
0
0
0
0
0
0
0
0
0
0
0
0
0
0
0
0
0
0
0
0
1
0
1
0
0
0
0
0
0
0
0
0
1
0
0
0
0
0
1
0
0
0
0
0
0
0
0
0
0
0
0
0
0
0
1
0
0
0
0
0
0
0
0
1
0
0
0
0
0
0
0
0
0
0
0
0
0
0
0
0
0
0
0
0
0
0
0
0
0
0
0
0
0
0
1
0
0
0
0
0
0
0
0
0
0
0
0
0
0
0
0
1
0
0
0
0
0
0
0
0
1
0
0
0
0
0
0
0
0
0
1
0
0
0
0
0
1
0
0
0
0
0
0
0
0
0
0
0
0
0
0
0
0
0
0
0
1
0
0
0
0
0
0
1
0
0
0
0
0
0
0
0
1
0
0
0
0
0
0
0
0
0
0
0
0
0
0
1
0
0
1
0
0
0
1
0
0
0
0
0
0
0
0
0
0
0
0
0
0
0
0
1
0
0
0
0
0
0
0
0
0
0
1
0
1
0
0
0
0
0
0
1
0
0
0
0
0
0
0
0
0
0
0
0
0
0
0
0
0
0
0
0
0
0
0
0
0
0
0
1
1
0
0
0
0
0
0
1
0
0
0
0
0
0
0
0
0
0
0
0
0
1
0
0
0
0
0
0
0
1
0
0
0
0
0
0
0
0
0
0
0
0
0
0
0
0
0
0
0
0
0
0
0
0
0
0
0
1
0
0
0
0
0
0
0
0
0
0
1
0
0
1
0
0
0
0
0
0
0
0
0
0
0
0
0
0
0
0
0
0
0
0
0
0
0
0
0
0
0
0
0
1
0
0
0
0
0
0
0
1
0
0
0
0
0
0
0
1
0
0
0
0
1
0
0
0
0
0
0
0
0
0
0
0
1
0
1
0
0
0
1
0
				</DataArray>
				<DataArray type="Float64" Name="h" NumberOfComponents="1" Format="ascii">
1.1660874106
1.1660696586
1.1707075184
1.1662913762
1.1713192968
1.1703208953
1.1685181935
1.1641028395
1.1675438183
1.1605211573
1.1649073451
1.1692736189
1.1636142667
1.1631034186
1.1643944873
1.1601333480
1.1673731825
1.1609985492
1.1654967777
1.1640334305
1.1724224026
1.1638447030
1.1683738199
1.1733385765
1.1658412269
1.1589773979
1.1658435425
1.1759015962
1.1711645087
1.1616614439
1.1625929415
1.1690937797
1.1630551325
1.1709026029
1.1794922113
1.1740249489
1.1759239672
1.1686169266
1.1752752027
1.1737492790
1.1718386004
1.1775669403
1.1666854623
1.1715126949
1.1746315262
1.1747197259
1.1694499351
1.1812909589
1.1918542655
1.1897824794
1.1744482953
1.1744253081
1.1722939639
1.1838450880
1.1773338339
1.1667865387
1.1755145767
1.1846173947
1.1854873037
1.1838434603
1.1890080188
1.1878323646
1.1916366096
1.1751849993
1.1725645120
1.1788103658
1.1877005277
1.1894736381
1.1875452480
1.1863022062
1.1858640868
1.1782740048
1.1685460534
1.1854894419
1.1855743525
1.1754362849
1.1846605838
1.1885285385
1.1830905967
1.1758595575
1.1915957450
1.1804970874
1.1955069214
1.1872614688
1.1734186216
1.1778555224
1.1926352432
1.1849710410
1.1887480261
1.1938226125
1.1925796358
1.1763125039
1.1899292231
1.1920032693
1.1803527552
1.1787294159
1.1826077998
1.1742760521
1.1765537689
1.1924167202
1.1947693213
1.1919079450
1.1828868230
1.1830807182
1.1572801035
1.1857694179
1.1798847982
1.1929435375
1.1880387698
1.1812321814
1.1910329643
1.1929546915
1.1912053580
1.1921957281
1.1852915227
1.1968042709
1.1837480856
1.1589362510
1.1946890300
1.1876346151
1.1576938198
1.1835290748
1.1773927435
1.1555455830
1.1908085053
1.1938822999
1.1861400162
1.1549819466
1.1966851961
1.1966913528
1.1951145487
1.1808846191
1.1884974402
1.1981280466
1.1586620309
1.1944591974
1.1567357736
1.1982094268
1.1942879564
1.1606973997
1.1544758081
1.1568320028
1.1961510105
1.1632671420
1.1783599572
1.1943332107
1.1584829808
1.1990112803
1.1561523332
1.2000901456
1.1555665894
1.1989213333
1.1989820539
1.2010428325
1.1931933487
1.1982120094
1.2005202216
1.1557335187
1.2002605265
1.1521629946
1.1616740288
1.1992387208
1.1572548859
1.1535385008
1.1553095070
1.1974888293
1.1658666150
1.1593200082
1.1534594193
1.1987351053
1.2002196870
1.1521505050
1.2007738865
1.1550534018
1.1667385438
1.2017571274
1.1641921388
1.1982845988
1.2015910891
1.1532159176
1.1975909893
1.1691664829
1.1518694265
1.1778133954
1.1519043859
1.1508572466
1.1683877414
1.2010746585
1.1527589107
1.1504654450
1.1714191014
1.2015617466
1.1509598466
1.1707765080
1.2016106389
1.1978956438
1.1533374142
1.1735040838
1.1729596089
1.2000521919
1.1503642283
1.1792079721
1.1506755802
1.2009124337
1.1754236760
1.1512738035
1.1586843954
1.1549242834
1.1749553041
1.1633627388
1.1704598278
1.1511066101
1.1524835006
1.1509762339
1.1566871672
1.1725396537
1.1609359709
1.1521376540
1.1682084485
1.1511357082
1.1768034978
1.1919017926
1.1658190354
1.1881400894
1.1794946690
1.1988726560
1.1952599395
1.1841580680
1.1771684097
1.1936521810
1.2000019994
1.1900505132
1.1818642937
1.1995524370
1.1979024548
1.1861855619
1.1710750534
1.1588216884
1.1508349813
1.1633945743
1.1701512114
1.1549644546
1.1513929619
1.1642298381
1.1555329304
1.1595205981
1.1515696688
1.1689196354
1.1567760136
1.1522293019
1.1610550235
1.1680103653
1.1525745829
1.1730686203
1.1721336875
1.1511095353
1.1618246928
1.1574053021
1.1509758346
1.1891080831
1.1657397905
1.1787025644
1.1830774452
1.1870670183
1.1807654215
1.1970198496
1.1975604015
1.1761788304
1.1989024239
1.1907280580
1.1939659796
1.1666230000
1.1926763891
1.1851970410
1.1872031381
1.1765206763
1.1809058582
1.1851256358
1.1889384770
1.1784561039
1.1942904141
1.1983120323
1.1980732090
1.1965635155
1.1924134947
1.1909392213
1.1830532140
1.1589462766
1.1516852103
1.1515063590
1.1596535013
1.1707593895
1.1550696970
1.1556272613
1.1634152566
1.1698841081
1.1642290431
1.1568972190
1.1523275880
1.1511088565
1.1512364278
1.1575346919
1.1687045460
1.1717774936
1.1726554330
1.1611465721
1.1678397629
1.1619130443
1.1526602182
1.1779606923
1.1840926403
1.1820486713
1.1975584091
1.1755873474
1.1925812440
1.1879605244
1.1656685660
1.1914293123
1.1961117592
1.1665143782
1.1859206628
1.1798687693
1.1894635824
1.1956379710
1.1800099115
1.1820157953
1.1840262637
1.1966958989
1.1860765569
1.1897488231
1.1929846379
1.1951113428
1.1968997406
1.1759365103
1.1877349936
1.1777129465
1.1910860416
1.1597829759
1.1913893003
1.1634694780
1.1696882369
1.1642391166
1.1518014452
1.1704925146
1.1552212001
1.1590976083
1.1557604139
1.1516270020
1.1885582753
1.1773651356
1.1715066910
1.1833620205
1.1576771076
1.1527702549
1.1890026328
1.1612627004
1.1784920843
1.1677282120
1.1619976213
1.1845469303
1.1861340609
1.1897495063
1.1512354763
1.1685301225
1.1723043023
1.1570568833
1.1744077913
1.1763036941
1.1803873587
1.1513605733
1.1811868465
1.1861671391
1.1524518205
1.1945691371
1.1867449999
1.1847686326
1.1941652604
1.1523717877
1.1911397159
1.1773199918
1.1750859290
1.1900986636
1.1960721502
1.1656434544
1.1881556259
1.1664344462
1.1790391204
1.1830104582
1.1810990295
1.1634523470
1.1953674432
1.1754646795
1.1849188746
1.1721225695
1.1935829223
1.1865036893
1.1520556152
1.1575553378
1.1595686618
1.1688267681
1.1792069270
1.1915980693
1.1670872278
1.1884756038
1.1705097580
1.1952059985
1.1897074323
1.1770445989
1.1810406412
1.1652969074
1.1829621013
1.1758754365
1.1859275191
1.1771402289
1.1599526028
1.1896006610
1.1887496294
1.1642999532
1.1847839815
1.1777597437
1.1744415570
1.1729587894
1.1559386473
1.1873983017
1.1890448678
1.1827690907
1.1920641843
1.1519308532
1.1850123682
1.1703055764
1.1788729172
1.1884269958
1.1825062254
1.1872345193
1.1798438770
1.1818901877
1.1841980322
1.1873896394
1.1910992484
1.1745404045
1.1770561932
1.1803298126
1.1578618244
1.1828637704
1.1762926847
1.1621250637
1.1794356502
1.1781915592
1.1843808526
1.1840585231
1.1818356649
1.1928768921
1.1513594242
1.1761059010
1.1684234563
1.1729588792
1.1871017711
1.1860550440
1.1794816087
1.1864314452
1.1529121361
1.1720510200
1.1601977118
1.1944954755
1.1664137096
1.1855306681
1.1811131651
1.1783238392
1.1700809106
1.1561817335
1.1926372780
1.1644381514
1.1887329952
1.1684034103
1.1747132862
1.1820004221
1.1855377945
1.1649170283
1.1520817541
1.1527022270
1.1539653675
1.1719152146
1.1581185382
1.1936470095
1.1829712095
1.1842331067
1.1901689180
1.1556304241
1.1837966657
1.1583325126
1.1771152073
1.1764989236
1.1852050975
1.1530925792
1.1520550433
1.1615441938
1.1623292231
1.1841987009
1.1871817435
1.1544291901
1.1808506263
1.1827121447
1.1630911669
1.1595687175
1.1688269370
1.1664725407
1.1801668808
1.1514876317
1.1734953046
1.1782086971
1.1556307650
1.1702184746
1.1801353042
1.1644383515
1.1746484567
1.1520807445
1.1813511228
1.1758145666
1.1519337713
1.1638079520
1.1702192211
1.1782765873
1.1770662597
1.1905783690
1.1596096574
1.1832908523
1.1530497747
1.1792769759
1.1732194339
1.1695951285
1.1829683826
1.1601976072
1.1806696943
1.1557101100
1.1561814295
1.1692234597
1.1530918363
1.1623292435
1.1514864079
1.1732194745
1.1719159230
1.1675731205
1.1609812935
1.1514800958
1.1642797804
1.1617127797
1.1520924288
1.1684040557
1.1659194754
1.1592174839
1.1871417694
1.1626465229
1.1575782388
1.1723871593
1.1528173738
1.1738396637
1.1713082228
1.1572746777
1.1850913625
1.1869317274
1.1677710829
1.1551002152
1.1860546949
1.1581183443
1.1708393423
1.1873923928
1.1664729653
1.1811132310
1.1791673620
1.1928799063
1.1658378865
1.1781859925
1.1818925294
1.1791887851
1.1777593056
1.1521351339
1.1744887228
1.1759627788
1.1801351196
1.1679311032
1.1620892810
1.1843844928
1.1808504303
1.1528777310
1.1771539761
1.1560827161
1.1910988321
1.1859314224
1.1794349769
1.1599996662
1.1920655602
1.1689228514
1.1611903433
1.1709244607
1.1612292946
1.1761061275
1.1696997629
1.1516318197
1.1851085898
1.1666861926
1.1716907215
1.1660698447
1.1849202931
1.1600204755
1.1827709953
1.1621200600
1.1662741948
1.1833087495
1.1887502701
1.1546165651
1.1647895831
1.1544153327
1.1826253980
1.1582807140
1.1759627721
1.1579855541
1.1791694980
1.1557097056
1.1658382815
1.1695956822
1.1596095960
1.1877514296
1.1751807365
1.1530757720
1.1519327353
1.1641181597
1.1603279737
1.1825320864
1.1528165392
1.1619691877
1.1662742781
1.1609395005
1.1626960418
1.1713087241
1.1638081974
1.1677716029
1.1575780165
1.1815105972
1.1829859661
1.1807587256
1.1782209767
1.1514789053
1.1648931943
1.1678262489
1.1686267980
1.1856077341
1.1819048665
1.1723871968
1.1634074357
1.1839535738
1.1636101001
1.1630136714
1.1524648179
1.1569593354
1.1655480585
1.1668316971
1.1703450021
1.1617128726
1.1809126362
1.1610004965
1.1517690456
1.1551352024
1.1800105983
1.1820447766
1.1834163329
1.1802317568
1.1595935936
1.1649604346
1.1536051999
1.1589545775
1.1841360767
1.1842515071
1.1692235813
1.1636769843
1.1677391623
1.1614315900
1.1814478681
1.1621623222
1.1623820394
1.1835652397
1.1830293845
1.1653104501
1.1640716252
1.1818245303
1.1630381839
1.1624918681
1.1628456958
1.1822558776
1.1834065716
1.1825789604
1.1616755347
1.1602142098
1.1624196701
1.1605720846
1.1613375883
1.1822594352
1.1825663897
1.1814305725
1.1818917467
1.1649041701
1.1828505279
1.1830094002
1.1594309525
1.1829864102
1.1826101598
1.1546168590
1.1833297371
1.1626467483
1.1830857810
1.1570084282
1.1590924141
1.1834875677
1.1582808336
1.1832308706
1.1838386496
1.1551000805
1.1838326524
1.1536738597
1.1512255545
1.1836571385
1.1845585017
1.1520907973
1.1677400476
1.1684215253
1.1684057284
1.1677190439
1.1679580638
1.1692785988
1.1649139785
1.1655427371
1.1707304771
1.1703303072
1.1713086405
1.1707144622
1.1675317699
1.1644058113
1.1685274569
1.1621056010
1.1655337524
1.1679510024
1.1630618350
1.1610031620
1.1662863907
1.1707008542
1.1655184426
1.1616652451
1.1608225631
1.1691119194
1.1640934119
1.1589771032
1.1658442416
1.1605175936
1.1629103544
1.1636011462
1.1723106680
1.1614066397
1.1664609777
1.1621003970
1.1625953146
1.1630520773
1.1709039524
1.1630686155
1.1691218112
1.1640865498
1.1737550732
1.1740464146
1.1673721777
1.1601292345
1.1667119350
1.1753012062
1.1691084120
1.1608174866
1.1718580767
1.1630993828
1.1640330348
1.1723058695
1.1683419414
1.1815777444
1.1638285161
1.1757359884
1.1628970242
1.1724193391
1.1664351789
1.1657227016
1.1778465496
1.1812918296
1.1614002656
1.1746403757
1.1744493475
1.1694852200
1.1758741774
1.1733306503
1.1711382856
1.1755385129
1.1724355595
1.1658216610
1.1774341912
1.1599000920
1.1740206262
1.1784108467
1.1795694320
1.1640715083
1.1723241215
1.1815770432
1.1909365629
1.1903519885
1.1656973162
1.1757325379
1.1769882222
1.1778295391
1.1740121789
1.1726002176
1.1685831846
1.1803420120
1.1794908959
1.1916344932
1.1894682305
1.1786018480
1.1759220201
1.1751994671
1.1784035194
1.1833822023
1.1838657646
1.1714772364
1.1854877041
1.1830717382
1.1782796933
1.1685716856
1.1861881350
1.1711370973
1.1715905676
1.1774308023
1.1892440769
1.1795687369
1.1775557616
1.1846598125
1.1858629471
1.1862749060
1.1855726798
1.1724057691
1.1695754149
1.1875443276
1.1779755387
1.1598970165
1.1863017300
1.1769828306
1.1803399629
1.1780100598
1.1785881081
1.1881319568
1.1812714991
1.1889080025
1.1918551043
1.1744052113
1.1903565515
1.1746912729
1.1805057743
1.1872555163
1.1804626678
1.1909402365
1.1897883806
1.1890085801
1.1878325377
1.1695432954
1.1902376983
1.1862775727
1.1854884850
1.1831020609
1.1830708252
1.1739250972
1.1694262121
1.1833825662
1.1779749161
1.1803765397
1.1773257040
1.1872764052
1.1861886274
1.1892447273
1.1667649832
1.1813242045
1.1862039087
1.1711145460
1.1838425007
1.1838663741
1.1838435575
1.1763245565
1.1846180277
1.1715573551
1.1899283800
1.1881348701
1.1830805699
1.1765738629
1.1804577360
1.1717969459
1.1812694567
1.1919076818
1.1869898697
1.1910479905
1.1859066854
1.1787950062
1.1947781656
1.1877084884
1.1813944617
1.1742971405
1.1906516091
1.1787412950
1.1812740398
1.1889177644
1.1924170060
1.1857612364
1.1779949894
1.1964406175
1.1813167801
1.1880370931
1.1929580666
1.1902384405
1.1862057968
1.1912036056
1.1803736266
1.1754285722
1.1900996335
1.1831021754
1.1885299765
1.1694037176
1.1931282170
1.1739153971
1.1910277688
1.1812415678
1.1872773230
1.1910488406
1.1964304169
1.1830276556
1.1906517227
1.1778472755
1.1835297524
1.1879081663
1.1813942688
1.1581859949
1.1812709451
1.1859081037
1.1734036073
1.1758431309
1.1926351004
1.1954949853
1.1915957890
1.1837528849
1.1830909000
1.1870019343
1.1576933221
1.1849760838
1.1717797680
1.1931277318
1.1808886346
1.1890576274
1.1571559137
1.1938863084
1.1902854496
1.1929639377
1.1887502503
1.1803461029
1.1920044134
1.1957605971
1.1938147878
1.1925794445
1.1937614989
1.1847283575
1.1908043916
1.1861390171
1.1901109463
1.1966959706
1.1828835244
1.1957739382
1.1881784998
1.1830234371
1.1581866076
1.1879110928
1.1925104240
1.1586629975
1.1944614374
1.1884940288
1.1572808992
1.1826107150
1.1783642034
1.1871196234
1.1568322946
1.1899449346
1.1571588887
1.1957553939
1.1921970970
1.1929402681
1.1576262896
1.1847283462
1.1929643180
1.1852916229
1.1561517592
1.1890701492
1.1961539780
1.1545783108
1.1967999014
1.1902875210
1.1943349632
1.1937590061
1.1798840457
1.1572158231
1.1759272663
1.1863207409
1.1995032101
1.1957677156
1.1925119834
1.1549917942
1.1976536736
1.1948492490
1.1939079248
1.1876376508
1.1881966729
1.1989227186
1.1589350341
1.1948009904
1.1946864227
1.1599821648
1.1555618655
1.1989848630
1.1931936582
1.1576300064
1.1545784856
1.1593203938
1.1553077495
1.1899492006
1.1998510652
1.1572156620
1.1542573955
1.1993825135
1.1852200924
1.1871353932
1.1555453185
1.1966829367
1.1616801997
1.1563497275
1.1773902328
1.1951124073
1.1595358476
1.1572513914
1.1959179875
1.1992432267
1.1549825293
1.2002632066
1.1939070383
1.1567405883
1.1981263340
1.1992904035
1.1841344606
1.1948417472
1.1978585112
1.1982061645
1.2007754906
1.1608991829
1.1557168070
1.1942874440
1.1599802915
1.1863391058
1.1549959764
1.1995012311
1.1759236584
1.1947997166
1.1987394887
1.1963749212
1.1976513042
1.2002211361
1.1550507651
1.2000874934
1.1518688377
1.1829223936
1.1563507801
1.1542583861
1.1965900521
1.1999081332
1.2008328671
1.1632548853
1.1990063808
1.1584835415
1.1532144206
1.1993785980
1.1595346903
1.1852313365
1.1523305378
1.1544773783
1.1975970272
1.1959163002
1.1642039755
1.1954374991
1.1606922710
1.1998477825
1.1529125756
1.1527586519
1.1982069240
1.2005183406
1.1557204798
1.1816697907
1.1992870791
1.1580387996
1.1608985169
1.1841456366
1.1519044002
1.1978540973
1.2010415878
1.1557354521
1.1963737636
1.1684042550
1.1802721611
1.2016114677
1.1658498624
1.1529134449
1.1965817370
1.1979035970
1.1523314600
1.2008310303
1.1954367068
1.1981471420
1.1517038220
1.1999051562
1.1829278669
1.1533327639
1.2015625223
1.1973481603
1.1535398533
1.1974819280
1.1707886486
1.1990978738
1.1521635701
1.1792065451
1.2013376661
1.1521506467
1.1506754842
1.1667243252
1.2009133650
1.1816754246
1.1534592900
1.1503640995
1.1580382736
1.1729662982
1.2009604695
1.2015902825
1.1538712519
1.1517041636
1.1533334707
1.1511064606
1.1990938644
1.1981403088
1.1520247909
1.1970149104
1.1691543463
1.1973470234
1.2017563536
1.1802739337
1.1506779163
1.1505119424
1.1982781134
1.1524822197
1.1749582282
1.1714116921
1.2000029701
1.2013369410
1.1504655625
1.2009595306
1.2003151215
1.2005714804
1.1778132064
1.1508572247
1.2010734702
1.1768043891
1.1515695612
1.1595213270
1.1539051031
1.1555294939
1.1735010182
1.1505119706
1.1744464299
1.1512801770
1.1642371640
1.1533864337
1.1538733812
1.1710775225
1.1509599379
1.1506922410
1.1970042084
1.1533396480
1.1508374151
1.1574029758
1.1539190942
1.1730693217
1.1618292483
1.1525732792
1.1689248928
1.1506779276
1.1508351442
1.1520256363
1.1992958442
1.1748865639
1.1754227896
1.2003135846
1.1909307795
1.1666304633
1.2005706671
1.1871807999
1.1784562971
1.1980767833
1.1943014398
1.1966897823
1.1830423067
1.1761792625
1.1926795205
1.2000512381
1.1890894848
1.1807616246
1.1989033150
1.1957628657
1.1970288207
1.1851785372
1.1704544820
1.1596542774
1.1534368628
1.1511357649
1.1642329888
1.1707598071
1.1533889265
1.1744457091
1.1539080851
1.1514373136
1.1739475654
1.1556251178
1.1516853749
1.1512803765
1.1633543786
1.1549280094
1.1586845132
1.1512737566
1.1681999174
1.1575334614
1.1526593849
1.1506921088
1.1619159365
1.1687064008
1.1521386079
1.1725372002
1.1726549369
1.1539864161
1.1509693451
1.1609317366
1.1539218856
1.1566902831
1.1508370606
1.1900630362
1.1665177754
1.1743813974
1.1777145216
1.1820096246
1.1860558454
1.1818709354
1.1957502563
1.1978962796
1.1967001558
1.1771691286
1.1995518801
1.1953580118
1.1897352494
1.1929909311
1.1658090584
1.1992936135
1.1936443875
1.1862040209
1.1881593508
1.1755874211
1.1798686110
1.1840781235
1.1879398859
1.1794968653
1.1952474885
1.1966787386
1.1975592946
1.1748872683
1.1988714901
1.1956469317
1.1914264141
1.1944052447
1.1919035950
1.1841708429
1.1597836272
1.1535285662
1.1513927061
1.1514375262
1.1518019765
1.1588215540
1.1701492916
1.1735116128
1.1557594699
1.1739480496
1.1549671132
1.1642408935
1.1704918381
1.1633894724
1.1534388283
1.1576767162
1.1527700940
1.1509687300
1.1510950475
1.1567780236
1.1680064054
1.1723030876
1.1541047303
1.1721331805
1.1539882503
1.1619991856
1.1685303397
1.1610520652
1.1522300218
1.1770458053
1.1851434216
1.1810393125
1.1983116914
1.1765207286
1.1915994696
1.1889564686
1.1664356354
1.1924107450
1.1943948309
1.1939290749
1.1952089807
1.1739601164
1.1657343866
1.1849046964
1.1809097077
1.1884622055
1.1965557501
1.1790408242
1.1830880501
1.1830027674
1.1975581963
1.1743824893
1.1929643266
1.1870884715
1.1907363463
1.1939557946
1.1941712642
1.1960721548
1.1750851147
1.1867283235
1.1787028209
1.1900925374
1.1953464651
1.1896001703
1.1788733733
1.1731804760
1.1847829942
1.1589460032
1.1535296712
1.1905106165
1.1880340251
1.1643004225
1.1776971044
1.1703044745
1.1634124678
1.1832383726
1.1873979485
1.1898579227
1.1515058228
1.1698840444
1.1735132753
1.1559385438
1.1599529934
1.1550712172
1.1758753819
1.1749165632
1.1818903148
1.1519317003
1.1804973026
1.1857926065
1.1536651872
1.1894361020
1.1780304073
1.1720497185
1.1842018384
1.1568982735
1.1523278301
1.1912751614
1.1881993960
1.1621256542
1.1790976559
1.1684228914
1.1611447258
1.1837870339
1.1870062916
1.1905763875
1.1510941726
1.1678383724
1.1717783879
1.1542656742
1.1578618909
1.1541055208
1.1749589497
1.1757917833
1.1811581210
1.1512180274
1.1818830524
1.1869598481
1.1529125504
1.1645021652
1.1936474891
1.1736591158
1.1877530033
1.1706891969
1.1924359458
1.1837899400
1.1951045506
1.1527028916
1.1526333147
1.1585194634
1.1901679910
1.1583325295
1.1673464595
1.1764990917
1.1929584963
1.1759363914
1.1681563036
1.1910884537
1.1715192287
1.1968998925
1.1664137411
1.1871726946
1.1656660094
1.1800102539
1.1840390610
1.1638914038
1.1801676359
1.1630908773
1.1944937904
1.1747120940
1.1859388253
1.1716906377
1.1926396570
1.1855210356
1.1939206992
1.1519232945
1.1519684626
1.1571880306
1.1914765892
1.1592061895
1.1684081995
1.1783250876
1.1925759964
1.1739615747
1.1666859105
1.1894752749
1.1700807588
1.1961092520
1.1887276409
1.1779594684
1.1820542375
1.1649167144
1.1819980934
1.1764823384
1.1838427515
1.1868628805
1.1909219464
1.1758146068
1.1776970532
1.1782767019
1.1797111103
1.1590973172
1.1904768298
1.1818442074
1.1896871944
1.1904767802
1.1750641804
1.1634682787
1.1856451403
1.1785372342
1.1749166648
1.1795945624
1.1734611560
1.1774679860
1.1552217410
1.1882763218
1.1898588726
1.1836765835
1.1850918667
1.1856430190
1.1829689509
1.1929786562
1.1516261957
1.1751361247
1.1857929460
1.1696891657
1.1744079431
1.1744415768
1.1871417829
1.1869317816
1.1795938359
1.1806700392
1.1877029683
1.1832386477
1.1880339678
1.1856383597
1.1536654585
1.1731825009
1.1804969494
1.1827014674
1.1890437610
1.1773652516
1.1847714501
1.1883290303
1.1850125540
1.1920218722
1.1749692157
1.1763036674
1.1775216943
1.1807916031
1.1570572137
1.1905117666
1.1823402366
1.1899905423
1.1758899775
1.1612617484
1.1861350274
1.1802689530
1.1735274698
1.1735274157
1.1786043775
1.1542656410
1.1885583718
1.1890031390
1.1853064194
1.1847292430
1.1824484472
1.1937667662
1.1512169473
1.1768203300
1.1798441622
1.1845473430
1.1677282340
1.1734613630
1.1877511071
1.1867558701
1.1803871129
1.1800184817
1.1883431163
1.1818827455
1.1869599140
1.1858333613
1.1524515440
1.1715083102
1.1790971618
1.1833628119
1.1593092693
1.1953685705
1.1826259008
1.1849208019
1.1914745583
1.1656426407
1.1539648730
1.1865168508
1.1592062541
1.1781860583
1.1819904891
1.1792056207
1.1705098653
1.1851091492
1.1538507736
1.1526327278
1.1554290418
1.1935792641
1.1621160950
1.1635928326
1.1839541644
1.1897119654
1.1553206379
1.1803368172
1.1834935947
1.1645025156
1.1575551852
1.1698752985
1.1698754683
1.1677013126
1.1754650647
1.1829683725
1.1860301461
1.1652972246
1.1690386254
1.1517664980
1.1523709941
1.1744883537
1.1775215627
1.1537674382
1.1563056934
1.1713476371
1.1529614252
1.1810345967
1.1572760909
1.1945678664
1.1833093165
1.1847019031
1.1911385978
1.1548189935
1.1847799698
1.1571879178
1.1774851905
1.1773189161
1.1690387860
1.1856083162
1.1526122418
1.1519677598
1.1544795154
1.1924320042
1.1611901470
1.1614420561
1.1845557041
1.1881659520
1.1537670061
1.1811444800
1.1831437122
1.1634526471
1.1585194048
1.1684084152
1.1625621369
1.1656945663
1.1736605502
1.1811002337
1.1860513991
1.1638916812
1.1513440289
1.1519224872
1.1565658983
1.1729796440
1.1785388025
1.1533930364
1.1553209371
1.1695884580
1.1805002150
1.1702704179
1.1538504433
1.1635926193
1.1750641956
1.1517655108
1.1818436891
1.1745404072
1.1729807473
1.1661389353
1.1762559805
1.1600848693
1.1522582852
1.1630843936
1.1876409125
1.1646626062
1.1787753246
1.1528864370
1.1695894271
1.1669855569
1.1787751669
1.1811577524
1.1774679398
1.1600244579
1.1882761484
1.1912781710
1.1746484480
1.1749592977
1.1876408301
1.1636141580
1.1605436267
1.1838421478
1.1870081544
1.1733293079
1.1532421783
1.1764821546
1.1540965024
1.1797108632
1.1811866132
1.1736469265
1.1724292214
1.1872345026
1.1729123951
1.1563525272
1.1913911833
1.1850496085
1.1757917147
1.1836138148
1.1865270083
1.1702370560
1.1559575493
1.1836132823
1.1857808621
1.1593090726
1.1693486495
1.1812455001
1.1565129046
1.1554289268
1.1861667222
1.1688249020
1.1526115791
1.1614417644
1.1737664773
1.1513428388
1.1807911976
1.1736469647
1.1792771503
1.1713487213
1.1672263840
1.1770561463
1.1608848679
1.1516230857
1.1640713959
1.1626274060
1.1520475659
1.1677018625
1.1656376525
1.1771403527
1.1794814503
1.1762926720
1.1590923174
1.1897505753
1.1832914287
1.1877031150
1.1625082422
1.1584747843
1.1828631844
1.1719274912
1.1518752113
1.1533199307
1.1786042449
1.1865271895
1.1737664462
1.1733705549
1.1718995163
1.1570084126
1.1847708997
1.1864312373
1.1684758697
1.1546592212
1.1840579501
1.1856378993
1.1572760042
1.1704031715
1.1818352170
1.1547624836
1.1544790273
1.1883324961
1.1656946609