<VTKFile type="UnstructuredGrid" version="0.1">
	<UnstructuredGrid>
		<Piece NumberOfPoints="1862" NumberOfCells="3498">
			<CellData>
				<DataArray type="Int32" Name="type" NumberOfComponents="1" Format="ascii">
0
0
0
0
0
0
0
0
0
0
0
0
0
0
0
0
1
0
0
1
0
0
0
0
0
0
0
0
0
0
0
0
0
1
0
0
0
0
0
0
0
0
0
0
0
0
0
0
0
0
1
0
0
0
0
0
0
0
0
0
0
1
0
0
0
0
0
0
0
0
0
0
0
0
0
0
0
0
0
0
0
0
0
0
0
0
0
0
0
0
0
0
0
0
0
0
0
0
0
0
0
0
0
0
0
0
0
0
0
0
0
0
0
0
0
0
0
0
0
0
0
0
0
1
0
0
0
0
0
0
0
0
0
0
0
0
0
0
0
0
0
0
0
0
0
0
0
0
0
0
0
1
0
1
1
0
0
0
0
0
0
0
0
0
0
0
0
0
1
0
1
0
0
0
0
1
0
0
0
0
0
0
0
0
1
1
0
0
0
0
0
1
0
0
0
0
0
0
0
0
1
0
0
0
0
0
0
0
0
0
0
0
0
0
0
0
0
0
0
0
0
0
0
0
0
0
0
0
0
0
0
0
0
1
0
0
0
0
0
0
0
0
0
0
0
0
0
0
0
0
0
0
0
0
0
0
0
0
0
0
0
0
0
0
0
0
0
0
0
0
0
0
0
0
0
0
0
0
0
0
0
1
0
0
0
0
0
0
0
0
0
0
0
0
0
0
0
0
0
0
0
0
0
0
0
0
0
0
0
0
0
0
0
0
0
0
0
0
0
0
0
0
0
0
0
0
0
0
0
0
0
0
1
0
0
0
0
0
0
0
0
0
0
0
0
0
0
0
0
0
0
0
0
0
0
0
0
0
0
0
0
0
0
0
0
0
0
0
0
0
0
0
0
0
0
0
0
0
0
0
0
0
0
0
0
0
0
0
0
0
1
0
0
0
0
0
0
0
0
0
0
0
0
0
0
0
0
0
0
0
0
0
0
0
0
0
0
0
0
0
0
0
0
0
0
0
0
0
0
0
0
0
0
0
0
0
0
0
0
0
0
0
0
0
0
0
0
0
0
0
0
0
0
0
0
0
0
0
0
0
0
0
0
0
0
0
0
0
0
0
0
0
0
0
0
0
0
0
0
0
0
0
0
0
0
0
0
0
0
0
0
0
0
0
0
0
0
0
0
0
0
0
0
0
0
0
0
0
0
0
0
0
0
0
0
0
0
0
0
0
0
0
0
1
0
0
0
0
0
0
0
0
0
0
0
0
0
0
0
0
0
0
0
1
0
0
0
0
0
0
0
0
0
0
0
0
0
0
0
0
0
0
0
0
0
0
0
0
0
0
0
0
0
0
0
0
0
0
0
0
0
0
0
0
0
0
0
0
0
0
0
0
0
0
0
0
0
1
0
0
0
0
0
0
0
0
0
0
0
0
0
0
0
0
0
0
0
0
0
0
0
1
0
0
0
0
0
0
0
0
0
0
0
0
0
0
0
0
0
0
0
1
0
0
0
1
0
0
0
0
0
0
0
0
0
0
0
0
0
0
0
0
0
0
0
0
0
0
0
0
0
1
0
0
0
0
0
0
0
1
0
0
0
0
0
0
0
0
0
0
0
0
0
0
0
0
0
0
0
0
0
0
0
0
0
0
1
0
0
0
0
0
0
0
1
0
0
0
0
0
0
1
0
0
0
0
0
0
0
0
0
0
0
0
0
0
0
0
0
0
0
0
0
0
0
0
0
0
0
0
0
0
0
0
0
0
0
0
0
0
1
0
0
0
0
0
1
0
0
0
0
0
0
0
1
0
0
0
0
0
0
0
0
0
0
0
0
0
1
0
0
0
0
0
0
0
0
0
0
0
0
0
0
0
0
0
0
0
0
0
0
0
0
0
0
0
0
0
0
0
0
0
0
0
0
0
0
0
0
0
0
0
0
0
0
0
0
0
0
0
0
0
1
0
0
0
0
0
0
0
0
0
0
0
0
0
0
0
0
0
0
0
1
0
0
0
0
0
0
0
0
0
1
0
0
0
0
0
0
0
0
0
0
0
0
0
0
0
0
0
0
0
0
0
0
0
0
0
0
0
0
0
1
0
1
0
0
0
0
0
0
0
0
0
0
0
0
0
0
0
0
0
0
0
0
0
0
0
0
0
0
0
1
0
0
0
1
0
0
0
0
0
0
0
0
0
0
0
0
0
0
0
0
0
0
0
0
0
0
0
0
0
0
0
0
1
0
0
0
0
0
0
0
0
0
0
0
0
0
0
0
0
0
0
0
0
0
0
0
0
0
1
0
0
0
0
0
0
0
0
0
0
0
0
0
0
0
0
0
0
0
0
0
0
0
1
0
0
0
0
0
0
1
0
0
0
0
0
0
0
0
0
0
0
1
0
0
0
0
0
0
0
0
0
0
0
0
0
0
0
0
0
0
0
0
1
0
0
0
0
0
0
0
0
0
0
0
1
0
0
0
0
0
0
0
0
0
0
0
0
0
0
0
0
0
0
0
0
0
1
0
0
0
0
0
0
0
0
0
1
1
0
1
0
1
0
0
0
0
0
0
0
0
0
0
0
1
0
0
0
0
0
1
1
0
0
0
0
0
0
1
0
0
0
0
0
1
1
1
0
0
0
0
0
0
0
0
0
0
0
0
1
1
0
0
1
0
0
0
0
0
1
0
0
0
1
0
1
0
0
0
0
0
0
0
1
0
0
0
0
0
0
0
1
0
0
1
0
0
0
0
0
0
0
0
0
0
0
0
0
0
0
1
0
0
0
0
0
0
0
0
0
0
0
0
0
0
0
0
0
0
0
0
0
0
0
0
0
0
0
0
0
0
0
0
0
0
0
0
1
0
0
0
0
0
0
1
0
0
0
1
0
0
0
0
0
0
0
0
0
0
0
1
0
0
0
0
0
0
0
0
0
0
0
0
0
0
0
0
0
0
0
0
0
0
0
0
0
0
0
0
0
0
0
0
0
0
0
0
0
0
0
0
1
1
0
0
0
0
0
0
0
0
0
0
0
0
0
1
0
0
0
0
0
0
0
0
0
0
0
0
0
0
0
0
0
0
0
0
0
0
0
0
0
0
0
0
0
0
0
0
0
0
0
0
0
0
0
0
0
0
0
0
0
0
0
0
0
0
0
0
0
0
0
0
0
0
0
0
0
0
0
0
0
0
0
0
0
0
0
0
1
1
0
0
0
0
0
0
0
0
1
0
0
0
0
0
0
0
0
0
0
0
0
0
0
0
0
0
0
0
0
0
0
0
1
0
0
0
0
0
0
0
0
0
0
0
0
0
0
0
0
1
0
0
0
0
0
0
0
0
0
0
0
0
0
0
0
0
0
0
0
0
0
0
0
0
0
0
0
0
0
0
0
0
0
0
0
0
0
0
0
0
0
0
0
0
0
0
0
0
0
0
0
0
0
0
0
0
0
0
0
0
0
0
0
0
0
0
0
0
0
0
0
0
0
0
0
0
0
0
0
0
0
0
0
0
0
0
0
0
0
0
1
1
0
0
0
0
0
1
0
0
0
0
0
0
0
0
0
0
0
0
1
0
0
0
0
0
0
0
0
0
0
0
0
0
0
0
0
0
0
0
0
0
0
0
0
0
0
0
0
0
0
0
0
0
0
0
0
0
0
0
0
0
0
0
0
0
0
0
0
0
0
0
0
0
1
0
1
0
0
0
0
0
0
0
0
0
0
0
0
0
0
0
0
0
0
1
0
0
0
0
0
0
0
0
0
0
0
0
0
0
0
0
0
0
0
0
0
0
0
0
0
0
0
0
0
0
0
0
0
0
0
0
0
0
0
0
0
0
0
0
0
0
0
0
0
0
0
0
0
0
0
0
0
0
0
0
0
0
0
0
0
0
0
0
0
0
1
0
0
0
0
0
0
0
0
0
0
1
0
0
0
0
0
0
0
0
0
0
0
0
0
0
0
0
0
0
0
0
0
0
0
0
0
0
0
0
0
0
0
0
0
0
0
0
0
1
0
0
0
0
0
0
0
0
0
0
0
0
0
0
0
0
0
0
0
0
0
0
0
0
0
0
0
0
0
0
0
0
0
0
0
0
0
0
0
0
0
0
0
0
0
0
0
0
0
0
0
0
0
0
0
0
0
0
0
0
0
0
0
0
0
0
0
0
0
0
0
0
0
0
0
0
0
0
0
0
0
1
0
0
0
0
0
0
0
0
0
0
0
0
0
0
0
0
0
0
0
0
0
0
0
0
0
0
0
0
0
0
0
0
0
0
0
0
0
0
0
0
0
0
0
0
0
0
0
0
0
0
0
0
0
0
0
0
0
0
0
0
0
0
0
0
0
0
0
0
0
0
0
0
0
0
0
0
0
0
0
0
0
0
0
0
0
0
0
0
0
0
0
0
0
0
0
0
0
0
0
0
0
0
0
0
0
0
0
0
0
0
0
0
0
0
0
0
0
0
0
0
0
0
0
1
0
0
0
0
0
0
0
0
0
0
0
0
0
0
0
0
0
0
0
0
0
0
0
0
0
0
0
0
0
0
0
0
0
0
0
0
0
0
0
0
0
0
0
0
0
0
0
0
0
0
0
0
0
0
0
0
0
0
0
0
0
0
0
0
0
0
0
0
0
0
0
0
0
0
0
0
0
0
0
0
0
1
0
0
0
0
0
0
0
1
0
0
0
0
0
0
0
0
0
0
0
0
0
0
0
0
0
0
0
0
0
0
0
0
0
0
0
0
0
0
0
0
0
0
0
0
0
1
0
0
0
0
0
0
0
0
0
0
0
0
0
0
0
0
0
0
0
0
0
1
0
0
0
0
0
0
0
0
0
0
0
0
1
1
0
0
0
0
0
0
0
0
0
0
0
0
0
0
0
1
1
0
1
0
0
0
0
0
0
0
0
0
1
0
0
0
0
0
0
1
0
0
0
0
0
0
0
0
0
0
1
0
0
0
0
1
0
1
0
0
0
0
0
0
0
1
0
0
0
1
0
0
0
1
0
1
1
0
0
1
1
0
0
0
1
0
0
0
1
0
0
0
0
0
0
0
0
0
1
0
0
0
0
0
0
1
0
0
0
0
0
0
0
0
0
0
0
0
0
0
0
0
0
0
0
0
0
0
0
0
0
0
0
1
0
0
1
0
0
0
0
0
0
0
0
0
0
0
0
0
0
0
0
0
0
1
0
0
1
0
0
0
0
0
0
0
0
0
0
0
1
0
0
1
0
0
0
0
0
0
0
0
0
0
0
1
1
0
0
0
0
0
0
0
0
0
0
0
0
1
0
0
0
0
0
0
0
0
0
0
0
0
0
0
0
0
0
1
0
0
0
0
0
0
0
0
0
0
0
0
0
0
0
0
0
1
0
0
0
0
0
0
0
0
0
0
0
0
0
0
0
0
0
0
0
0
0
0
0
0
0
0
0
0
0
0
0
0
0
0
0
0
0
0
0
0
1
0
0
0
0
0
0
0
0
0
0
0
0
0
0
0
0
0
0
0
0
0
0
0
0
0
0
0
0
0
0
0
0
0
0
0
0
0
0
0
0
0
0
0
0
0
1
0
0
0
0
0
0
0
0
0
0
0
0
0
0
0
0
0
0
0
0
0
0
0
0
0
0
0
0
0
0
0
0
0
0
0
0
0
0
0
0
0
0
0
0
0
0
0
1
0
0
0
0
0
0
0
0
0
0
1
0
0
0
0
0
0
0
0
0
0
0
0
0
0
0
1
0
0
1
0
0
0
0
0
0
0
0
0
0
0
0
0
0
0
0
0
0
0
0
0
0
0
1
0
0
0
0
0
0
0
0
0
0
0
0
0
0
0
0
0
0
0
0
0
0
0
0
0
0
0
0
0
0
0
0
0
0
0
1
0
0
0
0
0
0
0
0
0
0
0
0
0
0
0
0
0
0
0
0
0
0
0
0
0
0
0
0
0
0
0
0
0
0
0
0
0
0
0
0
0
0
0
0
0
0
0
0
0
0
0
0
0
0
0
0
0
0
0
0
0
0
0
0
0
0
0
0
0
0
0
0
0
0
0
0
1
0
0
0
0
0
0
0
0
0
0
0
0
0
0
0
0
0
0
0
0
0
0
0
0
0
0
0
0
0
0
0
0
0
0
0
0
0
0
0
1
0
0
0
0
0
0
0
0
0
0
0
0
1
1
0
0
0
0
0
0
0
0
0
0
0
0
0
0
0
0
0
0
0
0
0
0
0
0
0
0
0
0
0
0
0
0
0
0
0
0
0
0
0
0
0
0
0
0
0
0
0
0
0
0
0
0
0
0
0
0
0
0
0
0
0
0
0
0
0
0
0
0
0
0
0
0
0
0
0
0
0
0
0
0
0
0
0
0
0
0
0
0
0
0
0
0
0
0
0
0
0
0
0
0
0
1
0
1
0
0
0
0
0
0
0
1
1
1
1
0
0
0
0
0
0
0
0
0
0
0
0
0
0
0
0
0
0
0
0
0
0
0
0
0
0
0
0
1
1
0
0
0
0
0
0
0
0
0
0
0
0
0
0
0
0
0
0
1
0
0
0
0
0
0
0
1
1
0
1
1
0
0
1
0
0
0
0
0
0
0
1
0
1
0
0
0
0
0
0
0
0
0
0
0
0
0
0
0
0
0
0
0
0
0
0
0
0
0
0
0
1
1
0
0
0
1
1
0
0
0
0
1
0
0
1
0
1
0
0
0
0
0
1
0
0
0
1
0
0
0
0
0
0
0
0
0
0
0
0
0
0
0
0
0
0
0
0
0
0
0
0
0
0
0
1
0
0
0
0
0
0
1
0
0
0
0
0
0
0
0
0
0
0
0
0
0
0
0
0
0
0
0
0
0
0
0
0
0
0
0
0
1
0
1
0
0
0
0
0
0
0
1
0
0
0
0
0
0
0
0
0
0
0
1
0
0
0
0
0
0
0
0
0
1
0
0
0
0
0
0
0
1
0
0
0
0
0
0
0
1
0
0
0
0
0
0
0
0
0
0
0
0
0
0
0
0
0
0
0
1
0
1
0
0
0
0
0
1
0
0
0
0
0
0
0
0
0
0
0
0
0
0
0
0
0
0
0
0
0
0
0
0
0
1
0
1
0
0
0
0
0
0
0
0
0
1
0
0
0
0
0
1
0
0
0
0
0
0
0
0
0
0
0
0
0
0
0
1
0
0
0
0
0
0
0
0
1
0
0
0
0
0
0
0
0
0
0
0
0
0
0
0
0
0
0
0
0
0
0
0
0
0
0
0
0
0
0
1
0
0
0
0
0
0
0
0
0
0
0
0
0
0
0
0
1
0
0
0
0
0
0
0
0
1
0
0
0
0
0
0
0
0
0
1
0
0
0
0
0
1
0
0
0
0
0
0
0
0
0
0
0
0
0
0
0
0
0
0
0
1
0
0
0
0
0
0
1
0
0
0
0
0
0
0
0
1
0
0
0
0
0
0
0
0
0
0
0
0
0
0
1
0
0
1
0
0
0
1
0
0
0
0
0
0
0
0
0
0
0
0
0
0
0
0
1
0
0
0
0
0
0
0
0
0
0
1
0
1
0
0
0
0
0
0
1
0
0
0
0
0
0
0
0
0
0
0
0
0
0
0
0
0
0
0
0
0
0
0
0
0
0
0
1
1
0
0
0
0
0
0
1
0
0
0
0
0
0
0
0
0
0
0
0
0
1
0
0
0
0
0
0
0
1
0
0
0
0
0
0
0
0
0
0
0
0
0
0
0
0
0
0
0
0
0
0
0
0
0
0
0
1
0
0
0
0
0
0
0
0
0
0
1
0
0
1
0
0
0
0
0
0
0
0
0
0
0
0
0
0
0
0
0
0
0
0
0
0
0
0
0
0
0
0
0
1
0
0
0
0
0
0
0
1
0
0
0
0
0
0
0
1
0
0
0
0
1
0
0
0
0
0
0
0
0
0
0
0
1
0
1
0
0
0
1
0
				</DataArray>
				<DataArray type="Float64" Name="h" NumberOfComponents="1" Format="ascii">
1.1644273560
1.1644376013
1.1614124779
1.1634059472
1.1612534827
1.1618700752
1.1624849065
1.1647825159
1.1633548844
1.1663983635
1.1641434352
1.1620823273
1.1656515581
1.1648747556
1.1649709646
1.1678215305
1.1628670913
1.1664195812
1.1650120157
1.1643478698
1.1605291137
1.1663229889
1.1638458195
1.1604057644
1.1635378638
1.1685893249
1.1661749567
1.1607546154
1.1621479350
1.1655505736
1.1649780144
1.1631520488
1.1670501561
1.1612516105
1.1566082482
1.1603392402
1.1586876230
1.1644265752
1.1612679047
1.1598938365
1.1614096296
1.1589220364
1.1653760752
1.1625661782
1.1596439699
1.1611174118
1.1636042675
1.1556095007
1.1459086159
1.1485309743
1.1594972853
1.1606017855
1.1617246667
1.1544631197
1.1585515734
1.1661420641
1.1601731177
1.1531381013
1.1527391498
1.1541343834
1.1494786239
1.1505806475
1.1462959535
1.1597803705
1.1622224820
1.1589555148
1.1510271437
1.1489080366
1.1508129430
1.1518711219
1.1521457665
1.1577392256
1.1652367346
1.1529940272
1.1527169320
1.1624823148
1.1531700054
1.1498834720
1.1541619650
1.1617035606
1.1468636476
1.1576801154
1.1399733554
1.1513908059
1.1634889349
1.1604407047
1.1457444599
1.1538278249
1.1497019173
1.1425529830
1.1456186544
1.1614818877
1.1484243625
1.1452200744
1.1582518893
1.1594601154
1.1565518761
1.1625164559
1.1608161397
1.1459539762
1.1414124429
1.1467084396
1.1558874162
1.1542259057
1.1679929176
1.1534929514
1.1590601932
1.1443255347
1.1504855140
1.1572505057
1.1467072201
1.1440601206
1.1471527536
1.1458061472
1.1534090760
1.1399036818
1.1549022518
1.1670795160
1.1424853475
1.1509513520
1.1675008788
1.1553763872
1.1613185439
1.1681205101
1.1474801876
1.1432058906
1.1524822489
1.1684255257
1.1404860410
1.1397961327
1.1424037241
1.1579477281
1.1500246289
1.1385987304
1.1668577474
1.1431215104
1.1694587587
1.1380421014
1.1440115860
1.1684388319
1.1688718897
1.1675469174
1.1408003081
1.1677822127
1.1602468287
1.1435647012
1.1690184957
1.1356071206
1.1679499021
1.1338124019
1.1698415010
1.1371981366
1.1367286985
1.1332142421
1.1452590540
1.1375091572
1.1341170401
1.1686148436
1.1338660525
1.1696876072
1.1685179046
1.1356546181
1.1695359963
1.1692264273
1.1685613807
1.1379097819
1.1670229513
1.1691282367
1.1691553642
1.1364992539
1.1348449940
1.1695752504
1.1334954154
1.1690596441
1.1670736421
1.1312659237
1.1678367619
1.1355674115
1.1316406828
1.1695491266
1.1382243380
1.1662624117
1.1699156572
1.1612429981
1.1695290290
1.1703526665
1.1662195630
1.1324054443
1.1694899065
1.1704064225
1.1653977399
1.1317927844
1.1702093452
1.1653829018
1.1314388412
1.1365954666
1.1699576101
1.1644509174
1.1644664925
1.1329602704
1.1704115766
1.1600936392
1.1703941525
1.1324570653
1.1634126366
1.1707391307
1.1697757341
1.1703787202
1.1634361309
1.1686805352
1.1664000137
1.1701187258
1.1703536494
1.1708865233
1.1701360058
1.1654684344
1.1692738935
1.1706929609
1.1672378376
1.1703544705
1.1623335549
1.1450599420
1.1679960384
1.1502115368
1.1600607569
1.1342810383
1.1399419892
1.1551798155
1.1623225860
1.1424452584
1.1333077600
1.1476782601
1.1576675019
1.1333527666
1.1357476626
1.1526623681
1.1664324482
1.1706588794
1.1704590143
1.1696740523
1.1674278024
1.1711727217
1.1713101362
1.1687952232
1.1706030081
1.1699416856
1.1709862594
1.1673012975
1.1709771480
1.1713456039
1.1702191324
1.1682753846
1.1709435131
1.1654846432
1.1664940376
1.1714915587
1.1694128447
1.1703424920
1.1708878447
1.1488567113
1.1690249097
1.1612116481
1.1564507348
1.1513824345
1.1588668491
1.1366654015
1.1353882340
1.1633987791
1.1338816189
1.1462029012
1.1411265022
1.1680898472
1.1436237410
1.1538393721
1.1513774623
1.1634231974
1.1588878480
1.1539259913
1.1488125060
1.1611968907
1.1410790768
1.1343586675
1.1350265065
1.1369128075
1.1436101072
1.1462476935
1.1563790698
1.1716418697
1.1716419384
1.1720216070
1.1708836048
1.1674794522
1.1720720365
1.1714693685
1.1707228604
1.1684617387
1.1698281024
1.1719169146
1.1721176911
1.1714927452
1.1722266541
1.1712378326
1.1683534601
1.1675247563
1.1665340064
1.1712433845
1.1693215246
1.1704098691
1.1716665641
1.1623593063
1.1551401284
1.1577211671
1.1349528870
1.1644709292
1.1424304833
1.1500267824
1.1700801215
1.1448205634
1.1366268258
1.1691402200
1.1526828919
1.1600468170
1.1474820694
1.1378805082
1.1600974163
1.1576480509
1.1552371587
1.1361896718
1.1525955532
1.1474237055
1.1422970556
1.1381998091
1.1355102060
1.1645190019
1.1500909445
1.1623144142
1.1449017517
1.1719141960
1.1410146774
1.1718036910
1.1694959552
1.1709021095
1.1724189481
1.1685291916
1.1730538200
1.1726971197
1.1724197555
1.1728414954
1.1458603120
1.1646046064
1.1685530121
1.1555430469
1.1722284363
1.1725044242
1.1443026822
1.1723205023
1.1636046892
1.1703719294
1.1714715428
1.1532525460
1.1505902597
1.1421646386
1.1722276997
1.1694137228
1.1675826295
1.1729380423
1.1686510507
1.1667264539
1.1602682705
1.1730612259
1.1592180312
1.1497211695
1.1729915175
1.1379878251
1.1513402355
1.1540423825
1.1392107536
1.1767855138
1.1438436664
1.1634902758
1.1655339942
1.1461416542
1.1361693174
1.1711494490
1.1488679564
1.1702115151
1.1612182780
1.1564524321
1.1589811101
1.1771351156
1.1367995805
1.1656011930
1.1539226502
1.1725746475
1.1396000796
1.1514652945
1.1778344856
1.1781242641
1.1780342135
1.1746189258
1.1612900218
1.1436317544
1.1755572758
1.1487332114
1.1736200270
1.1374807279
1.1463028116
1.1634236649
1.1588949034
1.1764083528
1.1565589866
1.1666530519
1.1516144414
1.1656671720
1.1730060336
1.1437742708
1.1465976301
1.1719992676
1.1530680522
1.1635005788
1.1696129913
1.1706214473
1.1734468289
1.1481557936
1.1436252522
1.1566365012
1.1403895352
1.1732921549
1.1520859624
1.1695750394
1.1624837349
1.1443031452
1.1568884626
1.1474677990
1.1614584365
1.1579493667
1.1526973208
1.1490732463
1.1421730045
1.1704459327
1.1666452122
1.1615048276
1.1732933058
1.1559719860
1.1685067305
1.1725745454
1.1613186768
1.1655725603
1.1541526025
1.1535356711
1.1581684609
1.1389778752
1.1730621984
1.1655949669
1.1704740399
1.1706225653
1.1455618636
1.1490602455
1.1625761444
1.1475695470
1.1734311622
1.1686251721
1.1741396711
1.1375166915
1.1712917214
1.1527319922
1.1590310848
1.1623708082
1.1744939907
1.1745357676
1.1406470634
1.1731065820
1.1475683426
1.1715288177
1.1665868329
1.1577540562
1.1485959994
1.1773413343
1.1742345862
1.1772936602
1.1776825953
1.1696597508
1.1744134437
1.1388865259
1.1552301478
1.1520388625
1.1450719543
1.1779873916
1.1552817273
1.1794198195
1.1680939127
1.1645173633
1.1489126794
1.1744234405
1.1778366080
1.1776929303
1.1737026287
1.1516260501
1.1501439270
1.1788634358
1.1612330919
1.1561380417
1.1780531079
1.1780365077
1.1746204409
1.1723715250
1.1601205656
1.1739686549
1.1686898971
1.1667773591
1.1779852740
1.1706140088
1.1624435979
1.1731092239
1.1710698572
1.1742357140
1.1593475388
1.1685735256
1.1747194000
1.1740218509
1.1706165518
1.1646512753
1.1674796149
1.1413252681
1.1749546123
1.1548969809
1.1800065557
1.1635824478
1.1722688914
1.1715634360
1.1558612516
1.1741421196
1.1604136366
1.1752119563
1.1745374899
1.1762560311
1.1744246312
1.1737052386
1.1739696962
1.1722695198
1.1696620173
1.1773453992
1.1803989931
1.1744134011
1.1791764086
1.1745755107
1.1787598121
1.1715314572
1.1783245321
1.1806809611
1.1459728699
1.1798788037
1.1751606243
1.1737923271
1.1749663781
1.1724287515
1.1706048451
1.1806307813
1.1512436021
1.1470538655
1.1724783695
1.1801369064
1.1490586097
1.1744155724
1.1750690602
1.1490642138
1.1723741631
1.1590293545
1.1650265532
1.1389770544
1.1733114811
1.1663042220
1.1582711980
1.1644198931
1.1635010739
1.1757365817
1.1676304753
1.1697928918
1.1624437568
1.1735291720
1.1757384220
1.1541448214
1.1612331245
1.1809592335
1.1684217551
1.1763707243
1.1421750830
1.1516044823
1.1613185469
1.1841504766
1.1403919811
1.1773223715
1.1785677559
1.1754031607
1.1837224515
1.1655958531
1.1725907060
1.1753855562
1.1491877283
1.1764842421
1.1734079709
1.1743957418
1.1502022386
1.1761394738
1.1566319853
1.1821980921
1.1795134663
1.1541554109
1.1465918996
1.1833060944
1.1805760191
1.1762548253
1.1561526198
1.1841638092
1.1697931244
1.1763439489
1.1653460084
1.1752137775
1.1733139886
1.1715656605
1.1749569838
1.1446833344
1.1709770168
1.1760340056
1.1747207763
1.1751467347
1.1861736502
1.1560977582
1.1749678089
1.1840043484
1.1795139495
1.1855529073
1.1831044995
1.1706067307
1.1740243827
1.1724807963
1.1751627533
1.1596305398
1.1544906671
1.1618360925
1.1669415974
1.1744146384
1.1808903357
1.1782865008
1.1736232205
1.1480473934
1.1582080314
1.1737926851
1.1814700314
1.1522847266
1.1884971505
1.1760062252
1.1762501357
1.1768786359
1.1899808180
1.1745230349
1.1726667173
1.1745780107
1.1614233792
1.1765051169
1.1758967563
1.1767827264
1.1636387608
1.1578346793
1.1530842673
1.1631640399
1.1866483509
1.1753313548
1.1765570380
1.1767963288
1.1515307575
1.1510728019
1.1762568748
1.1820800883
1.1779588322
1.1848175329
1.1599344454
1.1857906026
1.1847860516
1.1533231861
1.1547222156
1.1783281444
1.1800504820
1.1590002067
1.1816257970
1.1827868422
1.1872070283
1.1570083397
1.1537017415
1.1557110203
1.1822884214
1.1827198436
1.1874266087
1.1857865717
1.1851879876
1.1574447622
1.1563160941
1.1599678742
1.1586860326
1.1899507254
1.1553805053
1.1544873248
1.1860884712
1.1544912374
1.1562239609
1.1833082044
1.1543816140
1.1798805848
1.1539936718
1.1813153186
1.1814949256
1.1544171179
1.1841655273
1.1543745563
1.1523242600
1.1801390531
1.1519354389
1.1806316090
1.1803336025
1.1528857054
1.1504565600
1.1783510883
1.1635482783
1.1628972297
1.1629067213
1.1635601041
1.1627569450
1.1620788978
1.1641387354
1.1640440063
1.1619451844
1.1618645063
1.1612600516
1.1619551804
1.1633615238
1.1649638506
1.1624792639
1.1655871699
1.1640501884
1.1627613191
1.1658141916
1.1664157226
1.1634098235
1.1614166336
1.1650005049
1.1655471099
1.1672106592
1.1620865925
1.1647883744
1.1685882497
1.1635347753
1.1664016981
1.1664454954
1.1656599008
1.1607179622
1.1677854266
1.1647418980
1.1655913039
1.1649748412
1.1658205401
1.1612499336
1.1670416135
1.1631355675
1.1670000082
1.1598897984
1.1624145104
1.1628691430
1.1678257464
1.1653628085
1.1612512652
1.1620894020
1.1672145014
1.1613970753
1.1648784480
1.1643498596
1.1607213800
1.1638631273
1.1553151830
1.1663317078
1.1589426013
1.1664531133
1.1605315176
1.1647566911
1.1655025357
1.1593413983
1.1556083215
1.1677907608
1.1596373243
1.1594959274
1.1635841491
1.1607728495
1.1604113695
1.1621639619
1.1601548260
1.1632631151
1.1661870379
1.1578189123
1.1672960349
1.1624269079
1.1581001615
1.1565353698
1.1670091085
1.1617050227
1.1553164330
1.1469990598
1.1479267102
1.1655152447
1.1589456042
1.1584661023
1.1593552746
1.1603490156
1.1622013588
1.1644432413
1.1563557097
1.1566099039
1.1463026857
1.1489128332
1.1585215096
1.1586894902
1.1597692909
1.1581077033
1.1542256425
1.1538470024
1.1625866327
1.1529932581
1.1549624407
1.1577338312
1.1652237548
1.1519187482
1.1643299670
1.1631838861
1.1578218972
1.1493653400
1.1565363968
1.1589340108
1.1531705401
1.1521469400
1.1521103510
1.1527166446
1.1632773262
1.1643068376
1.1508146006
1.1575218254
1.1672991682
1.1518719754
1.1584710636
1.1563585571
1.1598108083
1.1585341330
1.1504683062
1.1559798386
1.1495715933
1.1459018281
1.1606172908
1.1479212606
1.1611365999
1.1576709276
1.1513942223
1.1571907264
1.1469912022
1.1485239971
1.1494767152
1.1505796495
1.1643226115
1.1483099848
1.1521087210
1.1527389812
1.1546792218
1.1549655824
1.1634599462
1.1652451558
1.1542261493
1.1575228810
1.1567858936
1.1585594016
1.1511011003
1.1519176363
1.1493637544
1.1661533902
1.1567530652
1.1519562410
1.1643400062
1.1544666584
1.1538474169
1.1541358204
1.1614771080
1.1531374881
1.1632004864
1.1484269197
1.1504666251
1.1542259077
1.1608021293
1.1571970801
1.1643721443
1.1559827048
1.1467106279
1.1519238972
1.1475068949
1.1529318019
1.1589693651
1.1414110925
1.1510211702
1.1553299466
1.1625086369
1.1479726752
1.1594512025
1.1563456476
1.1495623270
1.1459568143
1.1534985693
1.1598224018
1.1388755815
1.1567611970
1.1504873110
1.1440635548
1.1483077828
1.1519552498
1.1471562375
1.1567899240
1.1624839738
1.1478630722
1.1546807205
1.1498811984
1.1652556286
1.1449213088
1.1634623509
1.1467156394
1.1572412782
1.1510995367
1.1475040537
1.1388807990
1.1553717835
1.1479709728
1.1604442280
1.1553732632
1.1505991407
1.1553303987
1.1680671890
1.1563500184
1.1529334051
1.1634938222
1.1617112557
1.1457417823
1.1399799242
1.1468612327
1.1548950168
1.1541617347
1.1519148885
1.1674997460
1.1538252891
1.1643785191
1.1449179071
1.1579443510
1.1492710942
1.1685580898
1.1432094181
1.1480214121
1.1449156775
1.1496984656
1.1582573391
1.1452133441
1.1407703679
1.1425544655
1.1456149038
1.1436012739
1.1530269430
1.1474856128
1.1524806119
1.1478494872
1.1397959539
1.1558932320
1.1405104319
1.1503977164
1.1553781303
1.1680682407
1.1505953387
1.1452757881
1.1668558416
1.1431240486
1.1500291193
1.1679940420
1.1565503568
1.1602454520
1.1515296764
1.1675451674
1.1484154370
1.1685579856
1.1407708576
1.1458003957
1.1443217317
1.1687721778
1.1530266783
1.1449113119
1.1534125694
1.1679487845
1.1492601211
1.1408014962
1.1685987536
1.1399035050
1.1480178562
1.1435673894
1.1435981072
1.1590594024
1.1674816388
1.1623938634
1.1527155437
1.1361836066
1.1405112565
1.1452691201
1.1696688143
1.1389838561
1.1416078436
1.1442771498
1.1509489788
1.1503813757
1.1372010838
1.1670813304
1.1431239235
1.1424824764
1.1662690065
1.1698420818
1.1367295696
1.1452613996
1.1687729980
1.1686000987
1.1691260142
1.1685609271
1.1484103303
1.1347262207
1.1674830761
1.1687587773
1.1346115841
1.1538720127
1.1515183567
1.1681221528
1.1404843595
1.1685128206
1.1680361358
1.1613181118
1.1424012470
1.1663253898
1.1695355737
1.1416034727
1.1356526283
1.1684266108
1.1338658862
1.1442745346
1.1694590354
1.1385961641
1.1360683844
1.1549891532
1.1416088347
1.1383944523
1.1380414156
1.1334972839
1.1657316476
1.1691908671
1.1440089069
1.1662713874
1.1527005226
1.1696681177
1.1361814414
1.1623945635
1.1431212388
1.1364977991
1.1412664750
1.1389822946
1.1348476990
1.1690598539
1.1338129282
1.1699147884
1.1563706444
1.1680370634
1.1687595936
1.1390072969
1.1350124202
1.1331175962
1.1677898614
1.1356095966
1.1690201929
1.1695487075
1.1346138044
1.1663278086
1.1538626008
1.1699378651
1.1688724470
1.1382218346
1.1416011940
1.1678299395
1.1425065760
1.1684437645
1.1347266766
1.1693765746
1.1694887221
1.1375106724
1.1341152957
1.1691900371
1.1576947692
1.1360685074
1.1669927536
1.1657338378
1.1549796821
1.1695278047
1.1383945490
1.1332118508
1.1686148971
1.1412636935
1.1662124881
1.1589334813
1.1314413176
1.1670315577
1.1693774477
1.1390116185
1.1365898755
1.1699385515
1.1331165304
1.1425037799
1.1365863678
1.1698454408
1.1350121528
1.1563675804
1.1690928691
1.1317952293
1.1397800375
1.1692269672
1.1379130011
1.1653790388
1.1347077362
1.1696885693
1.1600961604
1.1317409103
1.1695764922
1.1703928906
1.1670803338
1.1324588873
1.1576903095
1.1691567872
1.1704102627
1.1669947083
1.1644652446
1.1321638454
1.1316383866
1.1695841161
1.1698464982
1.1690938546
1.1701174539
1.1347104412
1.1365909917
1.1702003873
1.1375944274
1.1662670561
1.1397770113
1.1312635072
1.1589317840
1.1702712803
1.1703377722
1.1355726810
1.1703531519
1.1634356552
1.1653999346
1.1333087878
1.1317383412
1.1704077784
1.1321613648
1.1331249724
1.1324870203
1.1612419651
1.1703539373
1.1324036318
1.1623345787
1.1709852986
1.1699389850
1.1701304735
1.1706031505
1.1644516297
1.1703391178
1.1644574625
1.1701816979
1.1687906849
1.1705655676
1.1695841223
1.1664309086
1.1702105707
1.1703758736
1.1376028114
1.1699576250
1.1706687352
1.1703414828
1.1708040695
1.1654835297
1.1694086131
1.1709431300
1.1672989763
1.1702726831
1.1704576124
1.1702010382
1.1340019050
1.1644716083
1.1634124983
1.1331240408
1.1462618734
1.1680862264
1.1324843485
1.1514006163
1.1611982311
1.1350242010
1.1410716587
1.1376675986
1.1563895037
1.1633987194
1.1436262350
1.1329577204
1.1488787549
1.1588714169
1.1338844428
1.1387082069
1.1366566003
1.1538573859
1.1664017730
1.1708809292
1.1712944492
1.1703556156
1.1698249993
1.1674772576
1.1705653959
1.1644580127
1.1701302671
1.1704853820
1.1654992069
1.1714689212
1.1716410721
1.1701828924
1.1686860645
1.1703784384
1.1697781013
1.1707401580
1.1672411007
1.1712363241
1.1716661568
1.1703772525
1.1704065499
1.1683513467
1.1706934271
1.1654696336
1.1665316837
1.1716041386
1.1711724783
1.1692784264
1.1708038998
1.1701366647
1.1706700922
1.1476630453
1.1691377431
1.1655377794
1.1623139718
1.1576559780
1.1526193941
1.1576614282
1.1387196419
1.1357530818
1.1361852532
1.1623212776
1.1333497184
1.1388577568
1.1474448801
1.1422935520
1.1680009936
1.1340022966
1.1424468662
1.1526448378
1.1501928666
1.1644692298
1.1600492073
1.1551561376
1.1500533445
1.1600580581
1.1399498555
1.1376767608
1.1349555125
1.1644722127
1.1342808551
1.1378696971
1.1448298472
1.1399380426
1.1450525128
1.1551674957
1.1719117041
1.1721321714
1.1713110905
1.1704864625
1.1724181095
1.1706614211
1.1674298283
1.1665398989
1.1724187942
1.1655014250
1.1711728877
1.1708995088
1.1685262301
1.1696777553
1.1712944835
1.1722266596
1.1725038618
1.1711737493
1.1718334760
1.1709782800
1.1682775488
1.1675794093
1.1725054311
1.1664961624
1.1716042452
1.1714687860
1.1694111624
1.1702227784
1.1713460589
1.1634222102
1.1539066081
1.1588990200
1.1343555093
1.1634233696
1.1436339197
1.1487901298
1.1702090881
1.1436073659
1.1399491783
1.1401639484
1.1374753468
1.1665976009
1.1690278441
1.1539410969
1.1588825101
1.1487556759
1.1369209436
1.1612185485
1.1564388940
1.1564630648
1.1353897807
1.1655401399
1.1412832292
1.1513585765
1.1461885396
1.1411336062
1.1392009897
1.1361714210
1.1655317478
1.1513639653
1.1612100520
1.1461556427
1.1388687382
1.1437741489
1.1624836283
1.1675749285
1.1530729063
1.1716442732
1.1721325487
1.1419791982
1.1462709632
1.1719966742
1.1646873796
1.1695719049
1.1707255946
1.1556848816
1.1481594890
1.1426404214
1.1720225689
1.1684645259
1.1665433482
1.1734454546
1.1730036236
1.1720726878
1.1666522950
1.1687113305
1.1579513068
1.1732912367
1.1603689089
1.1508253850
1.1730646440
1.1446610589
1.1635935021
1.1686220219
1.1543008188
1.1719183936
1.1721182979
1.1405323742
1.1454134485
1.1725719506
1.1625739816
1.1704711936
1.1712462662
1.1544986480
1.1493034699
1.1413266210
1.1718346432
1.1693239309
1.1675279095
1.1734852187
1.1732913515
1.1725059443
1.1677137074
1.1676627240
1.1591414164
1.1726125624
1.1580681551
1.1484713075
1.1734303260
1.1762632634
1.1388819615
1.1676486055
1.1500666037
1.1744488539
1.1415792990
1.1552923909
1.1382087010
1.1772916779
1.1778560879
1.1775697637
1.1450776250
1.1794176373
1.1765196869
1.1645160694
1.1412904014
1.1645203851
1.1745579569
1.1448933501
1.1725715415
1.1355070627
1.1712890907
1.1501613158
1.1700825207
1.1600944593
1.1552213177
1.1782081919
1.1601218744
1.1780510008
1.1375180796
1.1665849081
1.1526603980
1.1734070884
1.1406408986
1.1527478449
1.1401734160
1.1768717283
1.1773713102
1.1788345240
1.1427336606
1.1788332307
1.1755234802
1.1623702037
1.1424333917
1.1666008234
1.1764825308
1.1474629336
1.1744928258
1.1366298175
1.1475818816
1.1623592470
1.1577127974
1.1773394017
1.1577591804
1.1656849326
1.1537095794
1.1503203056
1.1430870981
1.1685729229
1.1646880387
1.1646508059
1.1625853567
1.1726994009
1.1426760294
1.1582325999
1.1453435822
1.1426751063
1.1703348080
1.1718061880
1.1517888644
1.1624574022
1.1687123225
1.1614180769
1.1697060397
1.1666110368
1.1730549175
1.1468945896
1.1426397296
1.1554128900
1.1512451269
1.1517952048
1.1558623145
1.1394567661
1.1728425349
1.1666684197
1.1508215971
1.1694991018
1.1686520501
1.1696122085
1.1459744429
1.1470551657
1.1614174163
1.1604137173
1.1453005847
1.1556822428
1.1462689137
1.1494354505
1.1730654220
1.1675782739
1.1603683523
1.1567588651
1.1436258815
1.1646053964
1.1515065871
1.1477827986
1.1520884601
1.1410989879
1.1696091401
1.1667271713
1.1657093543
1.1604460673
1.1729397574
1.1419792884
1.1571325393
1.1442686142
1.1693094378
1.1723230263
1.1505846987
1.1602169651
1.1706599092
1.1706589117
1.1646398454
1.1734861695
1.1458579092
1.1443024494
1.1528830746
1.1523039865
1.1570045132
1.1382115612
1.1726136589
1.1646001944
1.1614583785
1.1532494111
1.1703746976
1.1697073604
1.1446850396
1.1478725329
1.1602677941
1.1615271833
1.1438500585
1.1580664608
1.1484689562
1.1486654285
1.1729923558
1.1685563937
1.1625738168
1.1555393532
1.1738051097
1.1367966644
1.1561531372
1.1502034669
1.1427358380
1.1711519635
1.1776846875
1.1514457633
1.1788354687
1.1663039272
1.1578664930
1.1612889488
1.1736212554
1.1491891808
1.1740711333
1.1778581429
1.1741041753
1.1396072061
1.1788358841
1.1729051983
1.1522857309
1.1462917010
1.1786319706
1.1622728970
1.1540394845
1.1762654720
1.1781264978
1.1735850650
1.1735865264
1.1714243574
1.1656029056
1.1565492415
1.1476166539
1.1764104040
1.1755220237
1.1737479424
1.1767873831
1.1676294118
1.1677915559
1.1782870284
1.1792591980
1.1695798230
1.1783508627
1.1603860256
1.1740232500
1.1379911476
1.1541561672
1.1509194954
1.1438419048
1.1774214971
1.1540265834
1.1788367512
1.1673274049
1.1634909145
1.1755232341
1.1480490968
1.1739476135
1.1773733154
1.1745302950
1.1415847445
1.1785655604
1.1734340542
1.1506108996
1.1488498525
1.1782891592
1.1602631024
1.1550052420
1.1771373487
1.1775720650
1.1755249264
1.1769078152
1.1722274904
1.1676516343
1.1589766913
1.1472638116
1.1782101320
1.1734809563
1.1768736283
1.1775780298
1.1686065747
1.1660495732
1.1771425022
1.1786298357
1.1705295664
1.1614514712
1.1752360690
1.1740723190
1.1729077336
1.1703353342
1.1737491174
1.1582320694
1.1704465702
1.1686087917
1.1790441814
1.1676881879
1.1818121626
1.1752257952
1.1807722863
1.1459446305
1.1742213004
1.1636603327
1.1789378895
1.1705323711
1.1773967634
1.1636607405
1.1591393639
1.1666115499
1.1800952340
1.1468981288
1.1405316633
1.1710694501
1.1677150085
1.1459433054
1.1791180682
1.1753097016
1.1537083455
1.1492977930
1.1727600717
1.1794363309
1.1656839326
1.1751374324
1.1625855434
1.1592175801
1.1714832818
1.1739620942
1.1474693412
1.1696302967
1.1816665882
1.1410155828
1.1505951628
1.1676633572
1.1546545261
1.1469687814
1.1716501591
1.1798933669
1.1546529981
1.1500163426
1.1738074056
1.1767396959
1.1593045234
1.1756805354
1.1741056658
1.1497183256
1.1769853224
1.1739487334
1.1734365300
1.1720987964
1.1734820662
1.1604459232
1.1714840261
1.1635821527
1.1695823921
1.1781345766
1.1666457984
1.1812751502
1.1749213497
1.1800490572
1.1748512379
1.1792716244
1.1714270977
1.1791620489
1.1656666325
1.1625764624
1.1685072672
1.1814929972
1.1421632732
1.1548977952
1.1452990701
1.1807684152
1.1755830245
1.1559711245
1.1743750662
1.1796014324
1.1754681810
1.1646402343
1.1469703166
1.1720983301
1.1729325698
1.1706859467
1.1813132859
1.1515053033
1.1475682139
1.1725821166
1.1806685511
1.1535341530
1.1494339453
1.1740251804
1.1757285146
1.1581678933
1.1756302935
1.1745316704
1.1477733398
1.1722301012