<VTKFile type="UnstructuredGrid" version="0.1">
	<UnstructuredGrid>
		<Piece NumberOfPoints="1862" NumberOfCells="3498">
			<CellData>
				<DataArray type="Int32" Name="type" NumberOfComponents="1" Format="ascii">
0
0
0
0
0
0
0
0
0
0
0
0
0
0
0
0
1
0
0
1
0
0
0
0
0
0
0
0
0
0
0
0
0
1
0
0
0
0
0
0
0
0
0
0
0
0
0
0
0
0
1
0
0
0
0
0
0
0
0
0
0
1
0
0
0
0
0
0
0
0
0
0
0
0
0
0
0
0
0
0
0
0
0
0
0
0
0
0
0
0
0
0
0
0
0
0
0
0
0
0
0
0
0
0
0
0
0
0
0
0
0
0
0
0
0
0
0
0
0
0
0
0
0
1
0
0
0
0
0
0
0
0
0
0
0
0
0
0
0
0
0
0
0
0
0
0
0
0
0
0
0
1
0
1
1
0
0
0
0
0
0
0
0
0
0
0
0
0
1
0
1
0
0
0
0
1
0
0
0
0
0
0
0
0
1
1
0
0
0
0
0
1
0
0
0
0
0
0
0
0
1
0
0
0
0
0
0
0
0
0
0
0
0
0
0
0
0
0
0
0
0
0
0
0
0
0
0
0
0
0
0
0
0
1
0
0
0
0
0
0
0
0
0
0
0
0
0
0
0
0
0
0
0
0
0
0
0
0
0
0
0
0
0
0
0
0
0
0
0
0
0
0
0
0
0
0
0
0
0
0
0
1
0
0
0
0
0
0
0
0
0
0
0
0
0
0
0
0
0
0
0
0
0
0
0
0
0
0
0
0
0
0
0
0
0
0
0
0
0
0
0
0
0
0
0
0
0
0
0
0
0
0
1
0
0
0
0
0
0
0
0
0
0
0
0
0
0
0
0
0
0
0
0
0
0
0
0
0
0
0
0
0
0
0
0
0
0
0
0
0
0
0
0
0
0
0
0
0
0
0
0
0
0
0
0
0
0
0
0
0
1
0
0
0
0
0
0
0
0
0
0
0
0
0
0
0
0
0
0
0
0
0
0
0
0
0
0
0
0
0
0
0
0
0
0
0
0
0
0
0
0
0
0
0
0
0
0
0
0
0
0
0
0
0
0
0
0
0
0
0
0
0
0
0
0
0
0
0
0
0
0
0
0
0
0
0
0
0
0
0
0
0
0
0
0
0
0
0
0
0
0
0
0
0
0
0
0
0
0
0
0
0
0
0
0
0
0
0
0
0
0
0
0
0
0
0
0
0
0
0
0
0
0
0
0
0
0
0
0
0
0
0
0
1
0
0
0
0
0
0
0
0
0
0
0
0
0
0
0
0
0
0
0
1
0
0
0
0
0
0
0
0
0
0
0
0
0
0
0
0
0
0
0
0
0
0
0
0
0
0
0
0
0
0
0
0
0
0
0
0
0
0
0
0
0
0
0
0
0
0
0
0
0
0
0
0
0
1
0
0
0
0
0
0
0
0
0
0
0
0
0
0
0
0
0
0
0
0
0
0
0
1
0
0
0
0
0
0
0
0
0
0
0
0
0
0
0
0
0
0
0
1
0
0
0
1
0
0
0
0
0
0
0
0
0
0
0
0
0
0
0
0
0
0
0
0
0
0
0
0
0
1
0
0
0
0
0
0
0
1
0
0
0
0
0
0
0
0
0
0
0
0
0
0
0
0
0
0
0
0
0
0
0
0
0
0
1
0
0
0
0
0
0
0
1
0
0
0
0
0
0
1
0
0
0
0
0
0
0
0
0
0
0
0
0
0
0
0
0
0
0
0
0
0
0
0
0
0
0
0
0
0
0
0
0
0
0
0
0
0
1
0
0
0
0
0
1
0
0
0
0
0
0
0
1
0
0
0
0
0
0
0
0
0
0
0
0
0
1
0
0
0
0
0
0
0
0
0
0
0
0
0
0
0
0
0
0
0
0
0
0
0
0
0
0
0
0
0
0
0
0
0
0
0
0
0
0
0
0
0
0
0
0
0
0
0
0
0
0
0
0
0
1
0
0
0
0
0
0
0
0
0
0
0
0
0
0
0
0
0
0
0
1
0
0
0
0
0
0
0
0
0
1
0
0
0
0
0
0
0
0
0
0
0
0
0
0
0
0
0
0
0
0
0
0
0
0
0
0
0
0
0
1
0
1
0
0
0
0
0
0
0
0
0
0
0
0
0
0
0
0
0
0
0
0
0
0
0
0
0
0
0
1
0
0
0
1
0
0
0
0
0
0
0
0
0
0
0
0
0
0
0
0
0
0
0
0
0
0
0
0
0
0
0
0
1
0
0
0
0
0
0
0
0
0
0
0
0
0
0
0
0
0
0
0
0
0
0
0
0
0
1
0
0
0
0
0
0
0
0
0
0
0
0
0
0
0
0
0
0
0
0
0
0
0
1
0
0
0
0
0
0
1
0
0
0
0
0
0
0
0
0
0
0
1
0
0
0
0
0
0
0
0
0
0
0
0
0
0
0
0
0
0
0
0
1
0
0
0
0
0
0
0
0
0
0
0
1
0
0
0
0
0
0
0
0
0
0
0
0
0
0
0
0
0
0
0
0
0
1
0
0
0
0
0
0
0
0
0
1
1
0
1
0
1
0
0
0
0
0
0
0
0
0
0
0
1
0
0
0
0
0
1
1
0
0
0
0
0
0
1
0
0
0
0
0
1
1
1
0
0
0
0
0
0
0
0
0
0
0
0
1
1
0
0
1
0
0
0
0
0
1
0
0
0
1
0
1
0
0
0
0
0
0
0
1
0
0
0
0
0
0
0
1
0
0
1
0
0
0
0
0
0
0
0
0
0
0
0
0
0
0
1
0
0
0
0
0
0
0
0
0
0
0
0
0
0
0
0
0
0
0
0
0
0
0
0
0
0
0
0
0
0
0
0
0
0
0
0
1
0
0
0
0
0
0
1
0
0
0
1
0
0
0
0
0
0
0
0
0
0
0
1
0
0
0
0
0
0
0
0
0
0
0
0
0
0
0
0
0
0
0
0
0
0
0
0
0
0
0
0
0
0
0
0
0
0
0
0
0
0
0
0
1
1
0
0
0
0
0
0
0
0
0
0
0
0
0
1
0
0
0
0
0
0
0
0
0
0
0
0
0
0
0
0
0
0
0
0
0
0
0
0
0
0
0
0
0
0
0
0
0
0
0
0
0
0
0
0
0
0
0
0
0
0
0
0
0
0
0
0
0
0
0
0
0
0
0
0
0
0
0
0
0
0
0
0
0
0
0
0
1
1
0
0
0
0
0
0
0
0
1
0
0
0
0
0
0
0
0
0
0
0
0
0
0
0
0
0
0
0
0
0
0
0
1
0
0
0
0
0
0
0
0
0
0
0
0
0
0
0
0
1
0
0
0
0
0
0
0
0
0
0
0
0
0
0
0
0
0
0
0
0
0
0
0
0
0
0
0
0
0
0
0
0
0
0
0
0
0
0
0
0
0
0
0
0
0
0
0
0
0
0
0
0
0
0
0
0
0
0
0
0
0
0
0
0
0
0
0
0
0
0
0
0
0
0
0
0
0
0
0
0
0
0
0
0
0
0
0
0
0
0
1
1
0
0
0
0
0
1
0
0
0
0
0
0
0
0
0
0
0
0
1
0
0
0
0
0
0
0
0
0
0
0
0
0
0
0
0
0
0
0
0
0
0
0
0
0
0
0
0
0
0
0
0
0
0
0
0
0
0
0
0
0
0
0
0
0
0
0
0
0
0
0
0
0
1
0
1
0
0
0
0
0
0
0
0
0
0
0
0
0
0
0
0
0
0
1
0
0
0
0
0
0
0
0
0
0
0
0
0
0
0
0
0
0
0
0
0
0
0
0
0
0
0
0
0
0
0
0
0
0
0
0
0
0
0
0
0
0
0
0
0
0
0
0
0
0
0
0
0
0
0
0
0
0
0
0
0
0
0
0
0
0
0
0
0
0
1
0
0
0
0
0
0
0
0
0
0
1
0
0
0
0
0
0
0
0
0
0
0
0
0
0
0
0
0
0
0
0
0
0
0
0
0
0
0
0
0
0
0
0
0
0
0
0
0
1
0
0
0
0
0
0
0
0
0
0
0
0
0
0
0
0
0
0
0
0
0
0
0
0
0
0
0
0
0
0
0
0
0
0
0
0
0
0
0
0
0
0
0
0
0
0
0
0
0
0
0
0
0
0
0
0
0
0
0
0
0
0
0
0
0
0
0
0
0
0
0
0
0
0
0
0
0
0
0
0
0
1
0
0
0
0
0
0
0
0
0
0
0
0
0
0
0
0
0
0
0
0
0
0
0
0
0
0
0
0
0
0
0
0
0
0
0
0
0
0
0
0
0
0
0
0
0
0
0
0
0
0
0
0
0
0
0
0
0
0
0
0
0
0
0
0
0
0
0
0
0
0
0
0
0
0
0
0
0
0
0
0
0
0
0
0
0
0
0
0
0
0
0
0
0
0
0
0
0
0
0
0
0
0
0
0
0
0
0
0
0
0
0
0
0
0
0
0
0
0
0
0
0
0
0
1
0
0
0
0
0
0
0
0
0
0
0
0
0
0
0
0
0
0
0
0
0
0
0
0
0
0
0
0
0
0
0
0
0
0
0
0
0
0
0
0
0
0
0
0
0
0
0
0
0
0
0
0
0
0
0
0
0
0
0
0
0
0
0
0
0
0
0
0
0
0
0
0
0
0
0
0
0
0
0
0
0
1
0
0
0
0
0
0
0
1
0
0
0
0
0
0
0
0
0
0
0
0
0
0
0
0
0
0
0
0
0
0
0
0
0
0
0
0
0
0
0
0
0
0
0
0
0
1
0
0
0
0
0
0
0
0
0
0
0
0
0
0
0
0
0
0
0
0
0
1
0
0
0
0
0
0
0
0
0
0
0
0
1
1
0
0
0
0
0
0
0
0
0
0
0
0
0
0
0
1
1
0
1
0
0
0
0
0
0
0
0
0
1
0
0
0
0
0
0
1
0
0
0
0
0
0
0
0
0
0
1
0
0
0
0
1
0
1
0
0
0
0
0
0
0
1
0
0
0
1
0
0
0
1
0
1
1
0
0
1
1
0
0
0
1
0
0
0
1
0
0
0
0
0
0
0
0
0
1
0
0
0
0
0
0
1
0
0
0
0
0
0
0
0
0
0
0
0
0
0
0
0
0
0
0
0
0
0
0
0
0
0
0
1
0
0
1
0
0
0
0
0
0
0
0
0
0
0
0
0
0
0
0
0
0
1
0
0
1
0
0
0
0
0
0
0
0
0
0
0
1
0
0
1
0
0
0
0
0
0
0
0
0
0
0
1
1
0
0
0
0
0
0
0
0
0
0
0
0
1
0
0
0
0
0
0
0
0
0
0
0
0
0
0
0
0
0
1
0
0
0
0
0
0
0
0
0
0
0
0
0
0
0
0
0
1
0
0
0
0
0
0
0
0
0
0
0
0
0
0
0
0
0
0
0
0
0
0
0
0
0
0
0
0
0
0
0
0
0
0
0
0
0
0
0
0
1
0
0
0
0
0
0
0
0
0
0
0
0
0
0
0
0
0
0
0
0
0
0
0
0
0
0
0
0
0
0
0
0
0
0
0
0
0
0
0
0
0
0
0
0
0
1
0
0
0
0
0
0
0
0
0
0
0
0
0
0
0
0
0
0
0
0
0
0
0
0
0
0
0
0
0
0
0
0
0
0
0
0
0
0
0
0
0
0
0
0
0
0
0
1
0
0
0
0
0
0
0
0
0
0
1
0
0
0
0
0
0
0
0
0
0
0
0
0
0
0
1
0
0
1
0
0
0
0
0
0
0
0
0
0
0
0
0
0
0
0
0
0
0
0
0
0
0
1
0
0
0
0
0
0
0
0
0
0
0
0
0
0
0
0
0
0
0
0
0
0
0
0
0
0
0
0
0
0
0
0
0
0
0
1
0
0
0
0
0
0
0
0
0
0
0
0
0
0
0
0
0
0
0
0
0
0
0
0
0
0
0
0
0
0
0
0
0
0
0
0
0
0
0
0
0
0
0
0
0
0
0
0
0
0
0
0
0
0
0
0
0
0
0
0
0
0
0
0
0
0
0
0
0
0
0
0
0
0
0
0
1
0
0
0
0
0
0
0
0
0
0
0
0
0
0
0
0
0
0
0
0
0
0
0
0
0
0
0
0
0
0
0
0
0
0
0
0
0
0
0
1
0
0
0
0
0
0
0
0
0
0
0
0
1
1
0
0
0
0
0
0
0
0
0
0
0
0
0
0
0
0
0
0
0
0
0
0
0
0
0
0
0
0
0
0
0
0
0
0
0
0
0
0
0
0
0
0
0
0
0
0
0
0
0
0
0
0
0
0
0
0
0
0
0
0
0
0
0
0
0
0
0
0
0
0
0
0
0
0
0
0
0
0
0
0
0
0
0
0
0
0
0
0
0
0
0
0
0
0
0
0
0
0
0
0
0
1
0
1
0
0
0
0
0
0
0
1
1
1
1
0
0
0
0
0
0
0
0
0
0
0
0
0
0
0
0
0
0
0
0
0
0
0
0
0
0
0
0
1
1
0
0
0
0
0
0
0
0
0
0
0
0
0
0
0
0
0
0
1
0
0
0
0
0
0
0
1
1
0
1
1
0
0
1
0
0
0
0
0
0
0
1
0
1
0
0
0
0
0
0
0
0
0
0
0
0
0
0
0
0
0
0
0
0
0
0
0
0
0
0
0
1
1
0
0
0
1
1
0
0
0
0
1
0
0
1
0
1
0
0
0
0
0
1
0
0
0
1
0
0
0
0
0
0
0
0
0
0
0
0
0
0
0
0
0
0
0
0
0
0
0
0
0
0
0
1
0
0
0
0
0
0
1
0
0
0
0
0
0
0
0
0
0
0
0
0
0
0
0
0
0
0
0
0
0
0
0
0
0
0
0
0
1
0
1
0
0
0
0
0
0
0
1
0
0
0
0
0
0
0
0
0
0
0
1
0
0
0
0
0
0
0
0
0
1
0
0
0
0
0
0
0
1
0
0
0
0
0
0
0
1
0
0
0
0
0
0
0
0
0
0
0
0
0
0
0
0
0
0
0
1
0
1
0
0
0
0
0
1
0
0
0
0
0
0
0
0
0
0
0
0
0
0
0
0
0
0
0
0
0
0
0
0
0
1
0
1
0
0
0
0
0
0
0
0
0
1
0
0
0
0
0
1
0
0
0
0
0
0
0
0
0
0
0
0
0
0
0
1
0
0
0
0
0
0
0
0
1
0
0
0
0
0
0
0
0
0
0
0
0
0
0
0
0
0
0
0
0
0
0
0
0
0
0
0
0
0
0
1
0
0
0
0
0
0
0
0
0
0
0
0
0
0
0
0
1
0
0
0
0
0
0
0
0
1
0
0
0
0
0
0
0
0
0
1
0
0
0
0
0
1
0
0
0
0
0
0
0
0
0
0
0
0
0
0
0
0
0
0
0
1
0
0
0
0
0
0
1
0
0
0
0
0
0
0
0
1
0
0
0
0
0
0
0
0
0
0
0
0
0
0
1
0
0
1
0
0
0
1
0
0
0
0
0
0
0
0
0
0
0
0
0
0
0
0
1
0
0
0
0
0
0
0
0
0
0
1
0
1
0
0
0
0
0
0
1
0
0
0
0
0
0
0
0
0
0
0
0
0
0
0
0
0
0
0
0
0
0
0
0
0
0
0
1
1
0
0
0
0
0
0
1
0
0
0
0
0
0
0
0
0
0
0
0
0
1
0
0
0
0
0
0
0
1
0
0
0
0
0
0
0
0
0
0
0
0
0
0
0
0
0
0
0
0
0
0
0
0
0
0
0
1
0
0
0
0
0
0
0
0
0
0
1
0
0
1
0
0
0
0
0
0
0
0
0
0
0
0
0
0
0
0
0
0
0
0
0
0
0
0
0
0
0
0
0
1
0
0
0
0
0
0
0
1
0
0
0
0
0
0
0
1
0
0
0
0
1
0
0
0
0
0
0
0
0
0
0
0
1
0
1
0
0
0
1
0
				</DataArray>
				<DataArray type="Float64" Name="h" NumberOfComponents="1" Format="ascii">
1.2273890578
1.2274104578
1.2232726243
1.2275247056
1.2223350468
1.2241147082
1.2252772615
1.2296064233
1.2267934976
1.2332379054
1.2291324607
1.2248228736
1.2287340227
1.2309564931
1.2291224181
1.2309657753
1.2261858321
1.2320975511
1.2271972758
1.2294984546
1.2215077114
1.2270970015
1.2231336480
1.2206786175
1.2277686775
1.2329363143
1.2225803903
1.2114726906
1.2211479139
1.2322359867
1.2309767821
1.2231728722
1.2270616302
1.2232700445
1.2158265648
1.2190532312
1.2184929566
1.2206259505
1.2101784220
1.2203303250
1.2210272011
1.2130453245
1.2227630489
1.2187045506
1.2189257662
1.2140069952
1.2207474342
1.2148496011
1.2026191024
1.2013074526
1.2202913439
1.2169828169
1.2188552948
1.2074284804
1.2154090581
1.2198707386
1.2146491437
1.2127159161
1.2108412647
1.2098556821
1.2110097256
1.2119082819
1.2039515191
1.2171503391
1.2157285988
1.2075230383
1.2000189245
1.2027863452
1.2114238445
1.2125223591
1.2110971148
1.2157429892
1.2177112874
1.2066421500
1.2089843390
1.2031857549
1.2122478215
1.2099407130
1.2134705121
1.2067375773
1.2102252352
1.2063979725
1.2026783488
1.2015888974
1.2079064583
1.2027088459
1.2099846373
1.2000760953
1.2080962141
1.2012234355
1.2080719696
1.2040298804
1.2096388481
1.1997476237
1.2027557059
1.2038058793
1.1993516522
1.2081694791
1.2075370907
1.2093261537
1.2026774648
1.2108710586
1.2031473371
1.2139946305
1.2363418232
1.1987835762
1.1987880352
1.2026397462
1.2092942366
1.2039367009
1.1997354344
1.2012042302
1.2084008482
1.2062853588
1.2037525441
1.2084869256
1.2044225166
1.2354448842
1.2065551270
1.2045510483
1.2362248744
1.2006904253
1.1987611649
1.2387207956
1.2064712702
1.2040078883
1.2049970860
1.2397448426
1.2097534820
1.2076002985
1.2085361401
1.2001073399
1.2057062487
1.2107532571
1.2353326757
1.2075597938
1.2349800422
1.2098185895
1.2106363968
1.2284143304
1.2404307272
1.2370233801
1.2086284800
1.2243080102
1.1999329283
1.2089994592
1.2318512197
1.2080036749
1.2380858582
1.2089683645
1.2358644391
1.2108015567
1.2099224576
1.2108309389
1.2106710525
1.2085277271
1.2112923442
1.2381403180
1.2097070827
1.2424869229
1.2261354650
1.2088198433
1.2329936418
1.2406763543
1.2390113554
1.2067272667
1.2195864707
1.2301079920
1.2408814956
1.2086033316
1.2112413396
1.2424748974
1.2110690448
1.2384983373
1.2166747156
1.2121951661
1.2216529448
1.2054187013
1.2119570419
1.2407040230
1.2076035483
1.2114366021
1.2424612425
1.1958810984
1.2431234107
1.2438016757
1.2145465007
1.2108777971
1.2415349697
1.2439447284
1.2061359684
1.2118174667
1.2435705724
1.2093739259
1.2121501329
1.2055244914
1.2396704767
1.2009611071
1.2041977628
1.2079931718
1.2442217750
1.1947197542
1.2438385507
1.2101357175
1.1960863425
1.2418862144
1.2297583123
1.2358206750
1.1992014186
1.2212896556
1.2054293280
1.2435200807
1.2407852180
1.2426467977
1.2330616934
1.2000080189
1.2258143783
1.2403015671
1.2109122648
1.2429133112
1.1946121848
1.1981760201
1.2162581660
1.1952210189
1.1920365274
1.2054613094
1.2012501818
1.1934021047
1.1917172188
1.1997259701
1.2080139770
1.1966473294
1.1926967094
1.2066979311
1.2041242860
1.1940746013
1.2020407062
1.2271325629
1.2434899207
1.2178927962
1.2011239869
1.2338858075
1.2404880036
1.2183865418
1.2341797098
1.2275427691
1.2412073329
1.2075866839
1.2308323950
1.2386926747
1.2227975215
1.2068605046
1.2392996483
1.1966979310
1.1955755071
1.2413735217
1.2232282384
1.2311739285
1.2426442721
1.1951294590
1.2125228471
1.1879773817
1.1896844847
1.1919453586
1.1911345057
1.2025869277
1.2025375649
1.1903276633
1.2053286203
1.1949510811
1.1981145269
1.2131116261
1.1981379913
1.1926642251
1.1937495586
1.1875468523
1.1887362350
1.1907081613
1.1933958880
1.1905616333
1.1996642903
1.2038904826
1.2039654822
1.2011144292
1.1965412111
1.1966098575
1.1918930955
1.2240769469
1.2396344251
1.2387308348
1.2246205240
1.1976467207
1.2315476088
1.2320887519
1.2141030989
1.1966062302
1.2147378966
1.2281444070
1.2367417986
1.2413707426
1.2397240020
1.2286743494
1.2033577342
1.1910782638
1.1922772676
1.2193710777
1.2024836171
1.2199427575
1.2375070429
1.1840687095
1.1891249263
1.1859992192
1.2023312487
1.1860972421
1.1948297736
1.1917764775
1.2084052110
1.1948880126
1.1993486237
1.2091390085
1.1885656849
1.1871267064
1.1916331419
1.1994740015
1.1849187808
1.1880556863
1.1872154783
1.2009132357
1.1903602496
1.1933140273
1.1964566713
1.1978818038
1.2007767559
1.1835602249
1.1900551023
1.1864379055
1.1932384867
1.2213040621
1.1893977968
1.2099748481
1.1921056324
1.2107320950
1.2377340078
1.1931722811
1.2287794370
1.2206154993
1.2295092859
1.2366369444
1.1852199413
1.1747949326
1.1867787272
1.1794969321
1.2257286636
1.2354157903
1.1851891542
1.2155618119
1.1740388546
1.1979656950
1.2162696321
1.1799398556
1.1823913542
1.1860894164
1.2397207979
1.1989155372
1.1879417279
1.2250350822
1.1746242440
1.1737292749
1.1767888271
1.2377367474
1.1761136249
1.1813560629
1.2344620770
1.1960081636
1.1883943180
1.1852538485
1.1961888377
1.2246358555
1.1915098929
1.1804937038
1.1821543388
1.1915528382
1.1990861141
1.2040261880
1.1883378047
1.2048659222
1.1833058164
1.1855616669
1.1825276482
1.1975165127
1.1974591754
1.1799887696
1.1869196483
1.1772121593
1.1945414353
1.1867644303
1.2221373242
1.2113825007
1.2070504993
1.1834599224
1.1813817652
1.1931397241
1.1877489513
1.1899552983
1.1799086767
1.1976476143
1.1899320410
1.1825391931
1.1843434159
1.1925347450
1.1838344991
1.1743845980
1.1836287137
1.1734549714
1.2176078497
1.1865595149
1.1866902010
1.2064748119
1.1809409445
1.1769630392
1.1740616217
1.1757074827
1.2264956966
1.1838257752
1.1850168329
1.1806263378
1.1909716946
1.2355072412
1.1800354481
1.1888826932
1.1756493224
1.1837638133
1.1773784836
1.1826378387
1.1749691767
1.1780967698
1.1777672336
1.1851666437
1.1895982070
1.1742721796
1.1729056508
1.1738842502
1.2223717993
1.1764471832
1.1731648092
1.2122634273
1.1779821380
1.1728835203
1.1821046586
1.1781449302
1.1757925809
1.1923058166
1.2377330877
1.1763084251
1.1944807983
1.1757066911
1.1813727793
1.1804810455
1.1738042639
1.1806278434
1.2329677927
1.1839775565
1.2136257246
1.1957025427
1.2004534567
1.1851194820
1.1792328021
1.1798536794
1.1808777140
1.2230780256
1.1928523786
1.2021718203
1.1882643353
1.1903632775
1.1787650248
1.1822052285
1.1790944773
1.1930936318
1.2329236471
1.2227375888
1.2192082954
1.1807110581
1.2186553602
1.1942904512
1.1758904514
1.1775177048
1.1898372470
1.2154231437
1.1836168290
1.2078430006
1.1732653062
1.1790860881
1.1785179668
1.2301308201
1.2221353365
1.2024145301
1.2080749202
1.1773617056
1.1866798576
1.2149022590
1.1738607447
1.1757513060
1.1977592221
1.2070490937
1.1834591000
1.1961638776
1.1809283256
1.2354065220
1.1773510036
1.1732169708
1.2154250705
1.1851115008
1.1735084016
1.2021720490
1.1748241700
1.2329190569
1.1747318470
1.1732251859
1.2314089061
1.2014281604
1.1851105617
1.1731540835
1.1729484582
1.1876129340
1.2127761490
1.1767284099
1.2116465698
1.1732356676
1.1761537146
1.1844591383
1.1769526442
1.2136242554
1.1747177021
1.2220409010
1.2230736901
1.1843045719
1.2301256392
1.2080746110
1.2354026455
1.1761533964
1.1807097697
1.1880040171
1.2027248745
1.2338276799
1.1959454713
1.2072879638
1.2178445173
1.1903629275
1.1919777451
1.2052720312
1.1815543520
1.1996071975
1.2177226684
1.1784233491
1.2287973457
1.1763501839
1.1801080207
1.2075318648
1.1793301760
1.1815743157
1.1896775978
1.2103060511
1.1804815563
1.2186524018
1.1810784717
1.1851680126
1.1961640149
1.1792338064
1.1732008651
1.1923140123
1.1954509155
1.1729965730
1.1748958068
1.1731063653
1.1769600229
1.2282202982
1.1761928607
1.1739957722
1.1735084073
1.1866686838
1.2033339225
1.1821094481
1.1738607444
1.2065551948
1.1735274396
1.2182054339
1.1895980924
1.1836321492
1.1779806161
1.2044856057
1.1909757151
1.1867005743
1.2022803234
1.1816689927
1.2061477842
1.1763052075
1.1820393915
1.2308893522
1.1784771178
1.1885395620
1.1781352275
1.1919808287
1.1783482668
1.2087675999
1.1806298423
1.2043891558
1.1942680032
1.1762985866
1.1866887496
1.1914025597
1.1984588805
1.2220698132
1.1754895964
1.2008360902
1.1739956778
1.2137584727
1.1733115756
1.2220375520
1.1954504666
1.1844585122
1.2127744598
1.1824404934
1.1748186320
1.2253759876
1.2314049826
1.1976455099
1.1975428850
1.1752850002
1.2287930973
1.2092286942
1.1942678302
1.2046728192
1.2075972508
1.1801071160
1.2014274996
1.1896771511
1.2177201933
1.1741195581
1.1758839372
1.1737912519
1.1733192488
1.2338242288
1.1994730396
1.1898356700
1.1845684174
1.1790804172
1.1746981415
1.1784231957
1.2019762100
1.1770818845
1.1995356628
1.2002980206
1.2265403966
1.2153365605
1.1931616337
1.1894437634
1.1804605105
1.2072868858
1.1736504908
1.2056720603
1.2295822388
1.2195027066
1.1734738579
1.1746810126
1.1764441377
1.1733096459
1.1867662127
1.1947942170
1.2232210145
1.2107160145
1.1772748498
1.1773991494
1.1843041997
1.2041276374
1.1890660087
1.2084216944
1.1740476634
1.2085642305
1.2098041356
1.1768239585
1.1761154925
1.1928449848
1.1974826395
1.1746039990
1.2020133307
1.2063040354
1.2061621348
1.1749945233
1.1765947636
1.1754891105
1.2040356293
1.2047896927
1.2003945168
1.2015357282
1.2063337435
1.1750901377
1.1755381560
1.1742473045
1.1746579270
1.1901917805
1.1759933783
1.1762912682
1.1935262529
1.1758839671
1.1754390514
1.1914032336
1.1767213508
1.1996064254
1.1761276977
1.2064477405
1.2050219077
1.1768700561
1.2008364228
1.1764838788
1.1770160393
1.2103049462
1.1769486468
1.2084248829
1.2071620540
1.1767134629
1.1777193790
1.2196958675
1.2252804838
1.2249872381
1.2250040909
1.2253013458
1.2264415377
1.2248196232
1.2291244143
1.2285242332
1.2229370934
1.2241070526
1.2223433007
1.2229501469
1.2268042791
1.2291085130
1.2252673248
1.2319283849
1.2285362071
1.2264484575
1.2306863459
1.2320897801
1.2275323176
1.2232774954
1.2271745933
1.2322306568
1.2310231965
1.2246334455
1.2296180724
1.2329358469
1.2277639669
1.2332447676
1.2293818085
1.2287521689
1.2221672542
1.2287641929
1.2251163517
1.2319358241
1.2309732193
1.2307009959
1.2232700139
1.2270414853
1.2231444460
1.2245594938
1.2203264893
1.2109016636
1.2261868670
1.2309745820
1.2227322198
1.2101497219
1.2246348746
1.2310313915
1.2210118315
1.2309623081
1.2295013058
1.2221706378
1.2231647410
1.2137898839
1.2271172007
1.2190153966
1.2293996440
1.2215088435
1.2251466911
1.2252016808
1.2099516410
1.2148482814
1.2287759777
1.2189194929
1.2202900897
1.2207112287
1.2114930659
1.2206846269
1.2211685231
1.2146323681
1.2129441238
1.2226113117
1.2169345527
1.2332222169
1.2109298973
1.2135895454
1.2159875698
1.2245824772
1.2188296759
1.2137899374
1.2012572645
1.2040625668
1.2252302131
1.2190182600
1.2171682086
1.2099628381
1.2190629958
1.2156965081
1.2206608217
1.2138559801
1.2158285884
1.2039620210
1.2027926718
1.2108350641
1.2184944854
1.2171419148
1.2135899176
1.2126442916
1.2115730698
1.2187347600
1.2066488831
1.2091933493
1.2157408948
1.2176755117
1.2121483338
1.2127051432
1.2154706989
1.2169369247
1.2114885059
1.2159897371
1.2130514776
1.2122474877
1.2110976152
1.2075712634
1.2089879871
1.2129770713
1.2179094454
1.2114226885
1.2174158926
1.2332289929
1.2125196993
1.2171720467
1.2138561496
1.2064909582
1.2108392591
1.2029924092
1.2126024639
1.1999553811
1.2026065931
1.2169974456
1.2040558044
1.2140309264
1.2063963945
1.2015916387
1.2095466437
1.2012474298
1.2013015288
1.2110111230
1.2119109991
1.2179447813
1.2105373024
1.2075647895
1.2108399384
1.2113549829
1.2091880080
1.2048886758
1.2148600550
1.2126440019
1.2174180130
1.2121382251
1.2154130728
1.2109613980
1.2121494761
1.2114915784
1.2199019510
1.2074045127
1.2096072037
1.2127390160
1.2074208038
1.2115713490
1.2098509094
1.2040084933
1.2127171752
1.2155031049
1.2096394125
1.2029850378
1.2139919929
1.2075134937
1.2095428351
1.2098073156
1.2125997747
1.2108688513
1.1987930290
1.2093282590
1.2019798653
1.2075337208
1.2026971867
1.2000194814
1.2147361980
1.2081425473
1.2110759672
1.2037910261
1.2102978217
1.1999549315
1.2093272638
1.1987772923
1.2065083691
1.2041450478
1.2074011608
1.2092964868
1.2012230681
1.2105387315
1.2096046399
1.2084022927
1.2121354224
1.2032076918
1.1983064718
1.2113521077
1.2099401548
1.2148929062
1.2086593909
1.2049100598
1.1997451498
1.2039334704
1.2109611387
1.2093272935
1.2041295510
1.2064564758
1.2110783261
1.2027271290
1.2006863099
1.2070937968
1.2147384953
1.2353644806
1.2102926321
1.2019765408
1.2079340538
1.2067625952
1.2099848454
1.2026581962
1.2102260775
1.2044271482
1.2134717327
1.1988007898
1.2362244424
1.2000796855
1.2098355162
1.2086569337
1.2000968936
1.1983318349
1.2353292130
1.2040223538
1.2075931201
1.2072673115
1.2080916672
1.2027641998
1.1997334327
1.2064887673
1.2012020121
1.2080678509
1.2052376260
1.2130620257
1.2064752438
1.2050047732
1.1983052949
1.2076061833
1.2031478948
1.2053560453
1.1970016085
1.2064509325
1.2353647797
1.2070863699
1.2051723957
1.2353317949
1.2075655117
1.2057157535
1.2363416081
1.1993603873
1.1999157002
1.1969362275
1.2370243199
1.2054075517
1.2353286183
1.2064803566
1.2062785201
1.2026238081
1.2341560096
1.2130643766
1.2072629044
1.2037472326
1.2380877417
1.1983348509
1.2086319350
1.2395328652
1.2084816392
1.2075898816
1.2090025302
1.2052274414
1.1988024454
1.2373351621
1.2002057930
1.1958668094
1.2109730816
1.2053448950
1.2051633459
1.2373296414
1.2098410944
1.2040196686
1.2099840913
1.2045408935
1.1970135067
1.2108019519
1.2354459237
1.2097611194
1.2065473833
1.2342950423
1.2358717764
1.2099241453
1.2106699005
1.2341555928
1.2395307113
1.2301075502
1.2390144465
1.2054016689
1.2095222413
1.2373335467
1.2402383704
1.2078091558
1.1968206730
1.1969500569
1.2387189991
1.2097517248
1.2261252454
1.2380203935
1.1987783701
1.2085323963
1.2340984226
1.2329981933
1.2098415156
1.2088231862
1.2397421543
1.2097081922
1.2099835753
1.2349779688
1.2107523150
1.2098176027
1.1956607684
1.2040041938
1.2089563047
1.2098160320
1.2110689530
1.2328774361
1.2373547959
1.2106368756
1.2342964931
1.1958844974
1.2373222443
1.2109723151
1.2002226860
1.2097597655
1.2086067344
1.2106216199
1.2098395334
1.2112414398
1.2385030756
1.2089677342
1.2424646499
1.1967487754
1.2380186784
1.2402350698
1.2053358913
1.2099212858
1.2106766609
1.2243272037
1.2080000843
1.2318505213
1.2407086164
1.2078072463
1.2340993674
1.1968358321
1.2418860967
1.2404271563
1.2076100575
1.2098402075
1.2216338860
1.2105813692
1.2284235726
1.2095202223
1.2417700452
1.2415378034
1.2085228148
1.2112919662
1.2373476424
1.1951637865
1.2098156064
1.2359990103
1.2328781064
1.1956761956
1.2431255053
1.2089519673
1.2108304510
1.2381353935
1.2106211102
1.2145177607
1.1960983523
1.2121491080
1.2196131464
1.2417666381
1.2053242591
1.2055328329
1.2418818826
1.2106764518
1.2105813814
1.2067166735
1.2428752030
1.2099196832
1.1967653793
1.2414903113
1.2118167759
1.2106133127
1.2406716921
1.2067190764
1.2093484408
1.2068038911
1.2424836970
1.1947032195
1.2110220787
1.2424724147
1.2438409779
1.2166990376
1.2101340366
1.1951820742
1.2408790878
1.2442238660
1.2359979980
1.2041781122
1.2102745146
1.2119578776
1.2399787945
1.2428723765
1.2414871261
1.2435226099
1.2068024618
1.2067102589
1.2415454063
1.2040975757
1.2114605837
1.2106128523
1.2121958107
1.1961157562
1.2439006255
1.2441106638
1.2054137960
1.2407903746
1.1991868467
1.2061555599
1.2080108657
1.2110236365
1.2439425714
1.2102764181
1.2090135879
1.2091123389
1.1958970328
1.2437992934
1.2108786428
1.1946011419
1.2412113596
1.2275429181
1.2385902605
1.2341886875
1.2009752793
1.2441085032
1.1948973964
1.2431944577
1.2183717447
1.2382607653
1.2399726340
1.2020290330
1.2435678885
1.2437317438
1.2040841055
1.2396645606
1.2430341252
1.2311799036
1.2369214050
1.1966914878
1.2232202168
1.2393058380
1.2075705497
1.2438984359
1.2434922745
1.2415411982
1.2066915387
1.1917938237
1.1960959289
1.2090150488
1.1966151879
1.2130939257
1.2091152812
1.1937275567
1.1905516889
1.2039641917
1.1996877760
1.2027240246
1.1918701117
1.1903259961
1.1981565007
1.2079969587
1.1951188162
1.1911167464
1.2053222090
1.2011750853
1.2025963037
1.1926393401
1.2054464723
1.2246212810
1.2364831087
1.2429101940
1.2147278085
1.1976422134
1.2382533154
1.1949045818
1.2385831539
1.2424098410
1.1904929932
1.2320980387
1.2396390204
1.2431914654
1.2213047933
1.2358129453
1.2297573525
1.2418825773
1.2109328020
1.2286805530
1.2375140799
1.2437294886
1.2199371774
1.2033488162
1.2402961860
1.2000201910
1.1922776657
1.2350029203
1.2419303049
1.2258217095
1.2369131179
1.2330562606
1.2430316933
1.1966478399
1.2091278161
1.1875174749
1.1864380322
1.1880372056
1.1903339261
1.1927184881
1.2011557681
1.2041203860
1.2009138591
1.1917246242
1.2067026675
1.1996428172
1.1933092110
1.1964753916
1.2162782890
1.2066937595
1.1997024726
1.1940977235
1.1952367505
1.1861036845
1.1871178650
1.1890994111
1.1917576366
1.1920520863
1.2012270774
1.2027092656
1.2023238587
1.1917951671
1.2054661715
1.1994854670
1.1948978356
1.1980094004
1.1981612065
1.1934256943
1.2213052359
1.2343689803
1.2404838749
1.2424063284
1.2377390428
1.2271307386
1.2011335014
1.1861919406
1.2295175310
1.1904923419
1.2338769262
1.2107265232
1.1931722484
1.2179033080
1.2364747448
1.2257340941
1.2354230587
1.2419276685
1.2404349906
1.2308257146
1.2068733848
1.1879450432
1.2327142989
1.1955800595
1.2349937019
1.2162665783
1.1989121302
1.2228023096
1.2386863828
1.1825453537
1.1907360427
1.1843353694
1.2038973073
1.1875443167
1.1931501185
1.1934082012
1.2048603247
1.1965230367
1.1979905657
1.1963801733
1.1976481168
1.1834952439
1.2125363039
1.1868982819
1.1887523490
1.1899454426
1.2011065783
1.1833063456
1.1897087972
1.1855449133
1.2025410162
1.1875123551
1.1947015684
1.1919700187
1.1949465169
1.1980913714
1.1961975407
1.1990783762
1.1821622011
1.1883754288
1.1879835126
1.1915544814
1.1996242337
1.1865580417
1.1756507329
1.1822734676
1.1809401249
1.2240746408
1.2343604050
1.1878358691
1.1839383613
1.2064726695
1.1740902598
1.1888837151
1.2141091478
1.1785767917
1.1838259156
1.1864038545
1.2387263511
1.1966096666
1.1861877316
1.2265020093
1.2176092694
1.2315388918
1.1743860260
1.1740140354
1.1780966521
1.2355123179
1.1759904040
1.1813007243
1.2318851387
1.1866981275
1.1758210719
1.1839797972
1.1809097007
1.2281379675
1.2367351268
1.1890570143
1.1838608318
1.2122624762
1.1748997393
1.1944801885
1.2193735082
1.1787003594
1.1838425557
1.1876077549
1.2404321184
1.2024900792
1.1910775950
1.2300079249
1.2223759578
1.2327055311
1.1750626986
1.1733981639
1.1780956742
1.2385800098
1.1772433988
1.1826395213
1.2329743245
1.1947412472
1.1942886240
1.1800099655
1.1900732271
1.1802918862
1.1930481798
1.1836054679
1.1978731195
1.2227399526
1.2206740805
1.2098913282
1.1898411296
1.2078443261
1.1873611204
1.1790921056
1.1946887931
1.1835524355
1.1848750419
1.1932299748
1.1777764336
1.2007849295
1.2004515472
1.1866716267
1.2084126839
1.1849241120
1.1872387221
1.1960187845
1.1809278638
1.1977602100
1.1956943237
1.1787697271
1.1885905529
1.1781356713
1.1928559899
1.1851073653
1.1963643768
1.2260579216
1.2238099669
1.2104764505
1.1913762085
1.2065264008
1.1843881620
1.1798576799
1.1948135157
1.1834895559
1.1885402798
1.1916381061
1.1808782435
1.1993499990
1.1882626397
1.1840655261
1.1860146483
1.1930944883
1.1821987135
1.1751623686
1.1775374948
1.1852087059
1.1897768009
1.1732255323
1.1740897574
1.1731541942
1.1735680824
1.2206132436
1.1880629226
1.1753803512
1.1882860401
1.1880620085
1.1741671084
1.2099773424
1.1823780348
1.1782936588
1.1740135399
1.1768464611
1.1757206579
1.1728192841
1.2287722618
1.1852900531
1.1864073493
1.1821756656
1.1793303253
1.1823758889
1.1769531454
1.1926453692
1.2366323452
1.1770842918
1.1813012466
1.1921059551
1.1746232404
1.1740623366
1.1815528103
1.1815731836
1.1768448965
1.1747178941
1.1825870120
1.1785773354
1.1839393667
1.1796482297
1.2318775560
1.1822705718
1.1759902183
1.1794721924
1.1850133119
1.1747939468
1.1786129638
1.1867561656
1.1800354677
1.1912231993
1.1738222886
1.1737284869
1.1731254895
1.1743945437
1.2250299246
1.1878397011
1.1757010800
1.1881716766
1.1735605635
1.2155623935
1.1823921820
1.1794281822
1.1751318091
1.1751323214
1.1730012419
1.2300007760
1.1852206240
1.1851906741
1.1836724925
1.1791913950
1.1767292426
1.1940630393
1.2385768667
1.1774603557
1.1749693430
1.1799400924
1.1979679308
1.1757200345
1.1824383665
1.1815729080
1.1767887072
1.1744850386
1.1835035612
1.1772431092
1.1826395190
1.1797384720
1.2344556810
1.1867768865
1.1748987471
1.1794982666
1.2168004519
1.1974678969
1.1754897696
1.1783479122
1.1913703512
1.2040292522
1.2192061031
1.1867799930
1.2065250885
1.1729966222
1.1807468377
1.1813794908
1.1799079733
1.1784767014
1.2290011798
1.2206719740
1.2255972456
1.1945361226
1.2002742366
1.2056608041
1.1770818666
1.1899310718
1.2141279932
1.1734080688
1.1766397866
1.1947403058
1.2113808007
1.1808751592
1.1808744301
1.1935769411
1.1799821152
1.1838470737
1.1797948021
1.1925338390
1.1835174154
1.2342054649
1.2246331875
1.1761953138
1.1731645186
1.2175176117
1.2113238430
1.1830061480
1.2185425293
1.1741273065
1.2215321851
1.1960093779
1.1762987199
1.1781624097
1.1915021506
1.2181481682
1.1852708891
1.2104749908
1.1729313637
1.1804873808
1.1835168298
1.1790799066
1.2318242281
1.2238076509
1.2268850021
1.1930392665
1.2022814495
1.2114654062
1.1778116412
1.1883460662
1.2175157356
1.1739822374
1.1763204470
1.1975155648
1.2098897631
1.1843875303
1.2000059319
1.1996007534
1.1800074072
1.1825324793
1.1797172661
1.1960178976
1.2363818218
1.2260553648
1.2142533340
1.1790548404
1.1729391822
1.2215913272
1.2141296340
1.1879326435
1.1737191568
1.1816237930
1.2289953773
1.2056611099
1.1741668985
1.2342010498
1.1753800594
1.1742718089
1.1790533379
1.1931139979
1.1731295515
1.2044018410
1.2299397785
1.2003672163
1.1826912022
1.1981439384
1.1736330815
1.2163650960
1.1879321443
1.1887585451
1.1736330526
1.1780953813
1.1728192043
1.2041401466
1.1852904920
1.1890637882
1.1748243731
1.1750618847
1.1826923390
1.1969280821
1.2095500282
1.1775371630
1.1838445069
1.1767981793
1.2138958359
1.1751636965
1.2257157877
1.1735680425
1.1761134212
1.1753440440
1.1787049727
1.1826367874
1.1768194855
1.2054912352
1.1894020833
1.1787808129
1.1733973202
1.1779580190
1.1806135737
1.1822127543
1.2101987700
1.1779574378
1.1804028417
1.2167984891
1.1851721765
1.1755487923
1.2193159267
1.2255921652
1.1813553491
1.1859536440
1.2318187656
1.2114648346
1.1759106953
1.2363784445
1.1743943572
1.1753437038
1.1732357235
1.1830048838
1.1897860688
1.1729054796
1.2032791724
1.2326995305
1.1974831837
1.2039657369
1.2151719240
1.1935771831
1.1937295950
1.1734556170
1.1738042825
1.1731646391
1.2050225382
1.1860930880
1.1767286785
1.1825888865
1.2007409863
1.2147019144
1.1764467404
1.1794861053
1.2130489721
1.2268769575
1.1730011936
1.1806123733
1.1759108969
1.1770752487
1.1784362435
1.2064483840
1.1786128221
1.1806287294
1.1869389823
1.2088555127
1.1781445711
1.1796486010
1.2215285701
1.1824697486
1.1757923144
1.2233639006
1.2268798484
1.1867576860
1.1996013297