<VTKFile type="UnstructuredGrid" version="0.1">
	<UnstructuredGrid>
		<Piece NumberOfPoints="1862" NumberOfCells="3498">
			<CellData>
				<DataArray type="Int32" Name="type" NumberOfComponents="1" Format="ascii">
0
0
0
0
0
0
0
0
0
0
0
0
0
0
0
0
1
0
0
1
0
0
0
0
0
0
0
0
0
0
0
0
0
1
0
0
0
0
0
0
0
0
0
0
0
0
0
0
0
0
1
0
0
0
0
0
0
0
0
0
0
1
0
0
0
0
0
0
0
0
0
0
0
0
0
0
0
0
0
0
0
0
0
0
0
0
0
0
0
0
0
0
0
0
0
0
0
0
0
0
0
0
0
0
0
0
0
0
0
0
0
0
0
0
0
0
0
0
0
0
0
0
0
1
0
0
0
0
0
0
0
0
0
0
0
0
0
0
0
0
0
0
0
0
0
0
0
0
0
0
0
1
0
1
1
0
0
0
0
0
0
0
0
0
0
0
0
0
1
0
1
0
0
0
0
1
0
0
0
0
0
0
0
0
1
1
0
0
0
0
0
1
0
0
0
0
0
0
0
0
1
0
0
0
0
0
0
0
0
0
0
0
0
0
0
0
0
0
0
0
0
0
0
0
0
0
0
0
0
0
0
0
0
1
0
0
0
0
0
0
0
0
0
0
0
0
0
0
0
0
0
0
0
0
0
0
0
0
0
0
0
0
0
0
0
0
0
0
0
0
0
0
0
0
0
0
0
0
0
0
0
1
0
0
0
0
0
0
0
0
0
0
0
0
0
0
0
0
0
0
0
0
0
0
0
0
0
0
0
0
0
0
0
0
0
0
0
0
0
0
0
0
0
0
0
0
0
0
0
0
0
0
1
0
0
0
0
0
0
0
0
0
0
0
0
0
0
0
0
0
0
0
0
0
0
0
0
0
0
0
0
0
0
0
0
0
0
0
0
0
0
0
0
0
0
0
0
0
0
0
0
0
0
0
0
0
0
0
0
0
1
0
0
0
0
0
0
0
0
0
0
0
0
0
0
0
0
0
0
0
0
0
0
0
0
0
0
0
0
0
0
0
0
0
0
0
0
0
0
0
0
0
0
0
0
0
0
0
0
0
0
0
0
0
0
0
0
0
0
0
0
0
0
0
0
0
0
0
0
0
0
0
0
0
0
0
0
0
0
0
0
0
0
0
0
0
0
0
0
0
0
0
0
0
0
0
0
0
0
0
0
0
0
0
0
0
0
0
0
0
0
0
0
0
0
0
0
0
0
0
0
0
0
0
0
0
0
0
0
0
0
0
0
1
0
0
0
0
0
0
0
0
0
0
0
0
0
0
0
0
0
0
0
1
0
0
0
0
0
0
0
0
0
0
0
0
0
0
0
0
0
0
0
0
0
0
0
0
0
0
0
0
0
0
0
0
0
0
0
0
0
0
0
0
0
0
0
0
0
0
0
0
0
0
0
0
0
1
0
0
0
0
0
0
0
0
0
0
0
0
0
0
0
0
0
0
0
0
0
0
0
1
0
0
0
0
0
0
0
0
0
0
0
0
0
0
0
0
0
0
0
1
0
0
0
1
0
0
0
0
0
0
0
0
0
0
0
0
0
0
0
0
0
0
0
0
0
0
0
0
0
1
0
0
0
0
0
0
0
1
0
0
0
0
0
0
0
0
0
0
0
0
0
0
0
0
0
0
0
0
0
0
0
0
0
0
1
0
0
0
0
0
0
0
1
0
0
0
0
0
0
1
0
0
0
0
0
0
0
0
0
0
0
0
0
0
0
0
0
0
0
0
0
0
0
0
0
0
0
0
0
0
0
0
0
0
0
0
0
0
1
0
0
0
0
0
1
0
0
0
0
0
0
0
1
0
0
0
0
0
0
0
0
0
0
0
0
0
1
0
0
0
0
0
0
0
0
0
0
0
0
0
0
0
0
0
0
0
0
0
0
0
0
0
0
0
0
0
0
0
0
0
0
0
0
0
0
0
0
0
0
0
0
0
0
0
0
0
0
0
0
0
1
0
0
0
0
0
0
0
0
0
0
0
0
0
0
0
0
0
0
0
1
0
0
0
0
0
0
0
0
0
1
0
0
0
0
0
0
0
0
0
0
0
0
0
0
0
0
0
0
0
0
0
0
0
0
0
0
0
0
0
1
0
1
0
0
0
0
0
0
0
0
0
0
0
0
0
0
0
0
0
0
0
0
0
0
0
0
0
0
0
1
0
0
0
1
0
0
0
0
0
0
0
0
0
0
0
0
0
0
0
0
0
0
0
0
0
0
0
0
0
0
0
0
1
0
0
0
0
0
0
0
0
0
0
0
0
0
0
0
0
0
0
0
0
0
0
0
0
0
1
0
0
0
0
0
0
0
0
0
0
0
0
0
0
0
0
0
0
0
0
0
0
0
1
0
0
0
0
0
0
1
0
0
0
0
0
0
0
0
0
0
0
1
0
0
0
0
0
0
0
0
0
0
0
0
0
0
0
0
0
0
0
0
1
0
0
0
0
0
0
0
0
0
0
0
1
0
0
0
0
0
0
0
0
0
0
0
0
0
0
0
0
0
0
0
0
0
1
0
0
0
0
0
0
0
0
0
1
1
0
1
0
1
0
0
0
0
0
0
0
0
0
0
0
1
0
0
0
0
0
1
1
0
0
0
0
0
0
1
0
0
0
0
0
1
1
1
0
0
0
0
0
0
0
0
0
0
0
0
1
1
0
0
1
0
0
0
0
0
1
0
0
0
1
0
1
0
0
0
0
0
0
0
1
0
0
0
0
0
0
0
1
0
0
1
0
0
0
0
0
0
0
0
0
0
0
0
0
0
0
1
0
0
0
0
0
0
0
0
0
0
0
0
0
0
0
0
0
0
0
0
0
0
0
0
0
0
0
0
0
0
0
0
0
0
0
0
1
0
0
0
0
0
0
1
0
0
0
1
0
0
0
0
0
0
0
0
0
0
0
1
0
0
0
0
0
0
0
0
0
0
0
0
0
0
0
0
0
0
0
0
0
0
0
0
0
0
0
0
0
0
0
0
0
0
0
0
0
0
0
0
1
1
0
0
0
0
0
0
0
0
0
0
0
0
0
1
0
0
0
0
0
0
0
0
0
0
0
0
0
0
0
0
0
0
0
0
0
0
0
0
0
0
0
0
0
0
0
0
0
0
0
0
0
0
0
0
0
0
0
0
0
0
0
0
0
0
0
0
0
0
0
0
0
0
0
0
0
0
0
0
0
0
0
0
0
0
0
0
1
1
0
0
0
0
0
0
0
0
1
0
0
0
0
0
0
0
0
0
0
0
0
0
0
0
0
0
0
0
0
0
0
0
1
0
0
0
0
0
0
0
0
0
0
0
0
0
0
0
0
1
0
0
0
0
0
0
0
0
0
0
0
0
0
0
0
0
0
0
0
0
0
0
0
0
0
0
0
0
0
0
0
0
0
0
0
0
0
0
0
0
0
0
0
0
0
0
0
0
0
0
0
0
0
0
0
0
0
0
0
0
0
0
0
0
0
0
0
0
0
0
0
0
0
0
0
0
0
0
0
0
0
0
0
0
0
0
0
0
0
0
1
1
0
0
0
0
0
1
0
0
0
0
0
0
0
0
0
0
0
0
1
0
0
0
0
0
0
0
0
0
0
0
0
0
0
0
0
0
0
0
0
0
0
0
0
0
0
0
0
0
0
0
0
0
0
0
0
0
0
0
0
0
0
0
0
0
0
0
0
0
0
0
0
0
1
0
1
0
0
0
0
0
0
0
0
0
0
0
0
0
0
0
0
0
0
1
0
0
0
0
0
0
0
0
0
0
0
0
0
0
0
0
0
0
0
0
0
0
0
0
0
0
0
0
0
0
0
0
0
0
0
0
0
0
0
0
0
0
0
0
0
0
0
0
0
0
0
0
0
0
0
0
0
0
0
0
0
0
0
0
0
0
0
0
0
0
1
0
0
0
0
0
0
0
0
0
0
1
0
0
0
0
0
0
0
0
0
0
0
0
0
0
0
0
0
0
0
0
0
0
0
0
0
0
0
0
0
0
0
0
0
0
0
0
0
1
0
0
0
0
0
0
0
0
0
0
0
0
0
0
0
0
0
0
0
0
0
0
0
0
0
0
0
0
0
0
0
0
0
0
0
0
0
0
0
0
0
0
0
0
0
0
0
0
0
0
0
0
0
0
0
0
0
0
0
0
0
0
0
0
0
0
0
0
0
0
0
0
0
0
0
0
0
0
0
0
0
1
0
0
0
0
0
0
0
0
0
0
0
0
0
0
0
0
0
0
0
0
0
0
0
0
0
0
0
0
0
0
0
0
0
0
0
0
0
0
0
0
0
0
0
0
0
0
0
0
0
0
0
0
0
0
0
0
0
0
0
0
0
0
0
0
0
0
0
0
0
0
0
0
0
0
0
0
0
0
0
0
0
0
0
0
0
0
0
0
0
0
0
0
0
0
0
0
0
0
0
0
0
0
0
0
0
0
0
0
0
0
0
0
0
0
0
0
0
0
0
0
0
0
0
1
0
0
0
0
0
0
0
0
0
0
0
0
0
0
0
0
0
0
0
0
0
0
0
0
0
0
0
0
0
0
0
0
0
0
0
0
0
0
0
0
0
0
0
0
0
0
0
0
0
0
0
0
0
0
0
0
0
0
0
0
0
0
0
0
0
0
0
0
0
0
0
0
0
0
0
0
0
0
0
0
0
1
0
0
0
0
0
0
0
1
0
0
0
0
0
0
0
0
0
0
0
0
0
0
0
0
0
0
0
0
0
0
0
0
0
0
0
0
0
0
0
0
0
0
0
0
0
1
0
0
0
0
0
0
0
0
0
0
0
0
0
0
0
0
0
0
0
0
0
1
0
0
0
0
0
0
0
0
0
0
0
0
1
1
0
0
0
0
0
0
0
0
0
0
0
0
0
0
0
1
1
0
1
0
0
0
0
0
0
0
0
0
1
0
0
0
0
0
0
1
0
0
0
0
0
0
0
0
0
0
1
0
0
0
0
1
0
1
0
0
0
0
0
0
0
1
0
0
0
1
0
0
0
1
0
1
1
0
0
1
1
0
0
0
1
0
0
0
1
0
0
0
0
0
0
0
0
0
1
0
0
0
0
0
0
1
0
0
0
0
0
0
0
0
0
0
0
0
0
0
0
0
0
0
0
0
0
0
0
0
0
0
0
1
0
0
1
0
0
0
0
0
0
0
0
0
0
0
0
0
0
0
0
0
0
1
0
0
1
0
0
0
0
0
0
0
0
0
0
0
1
0
0
1
0
0
0
0
0
0
0
0
0
0
0
1
1
0
0
0
0
0
0
0
0
0
0
0
0
1
0
0
0
0
0
0
0
0
0
0
0
0
0
0
0
0
0
1
0
0
0
0
0
0
0
0
0
0
0
0
0
0
0
0
0
1
0
0
0
0
0
0
0
0
0
0
0
0
0
0
0
0
0
0
0
0
0
0
0
0
0
0
0
0
0
0
0
0
0
0
0
0
0
0
0
0
1
0
0
0
0
0
0
0
0
0
0
0
0
0
0
0
0
0
0
0
0
0
0
0
0
0
0
0
0
0
0
0
0
0
0
0
0
0
0
0
0
0
0
0
0
0
1
0
0
0
0
0
0
0
0
0
0
0
0
0
0
0
0
0
0
0
0
0
0
0
0
0
0
0
0
0
0
0
0
0
0
0
0
0
0
0
0
0
0
0
0
0
0
0
1
0
0
0
0
0
0
0
0
0
0
1
0
0
0
0
0
0
0
0
0
0
0
0
0
0
0
1
0
0
1
0
0
0
0
0
0
0
0
0
0
0
0
0
0
0
0
0
0
0
0
0
0
0
1
0
0
0
0
0
0
0
0
0
0
0
0
0
0
0
0
0
0
0
0
0
0
0
0
0
0
0
0
0
0
0
0
0
0
0
1
0
0
0
0
0
0
0
0
0
0
0
0
0
0
0
0
0
0
0
0
0
0
0
0
0
0
0
0
0
0
0
0
0
0
0
0
0
0
0
0
0
0
0
0
0
0
0
0
0
0
0
0
0
0
0
0
0
0
0
0
0
0
0
0
0
0
0
0
0
0
0
0
0
0
0
0
1
0
0
0
0
0
0
0
0
0
0
0
0
0
0
0
0
0
0
0
0
0
0
0
0
0
0
0
0
0
0
0
0
0
0
0
0
0
0
0
1
0
0
0
0
0
0
0
0
0
0
0
0
1
1
0
0
0
0
0
0
0
0
0
0
0
0
0
0
0
0
0
0
0
0
0
0
0
0
0
0
0
0
0
0
0
0
0
0
0
0
0
0
0
0
0
0
0
0
0
0
0
0
0
0
0
0
0
0
0
0
0
0
0
0
0
0
0
0
0
0
0
0
0
0
0
0
0
0
0
0
0
0
0
0
0
0
0
0
0
0
0
0
0
0
0
0
0
0
0
0
0
0
0
0
0
1
0
1
0
0
0
0
0
0
0
1
1
1
1
0
0
0
0
0
0
0
0
0
0
0
0
0
0
0
0
0
0
0
0
0
0
0
0
0
0
0
0
1
1
0
0
0
0
0
0
0
0
0
0
0
0
0
0
0
0
0
0
1
0
0
0
0
0
0
0
1
1
0
1
1
0
0
1
0
0
0
0
0
0
0
1
0
1
0
0
0
0
0
0
0
0
0
0
0
0
0
0
0
0
0
0
0
0
0
0
0
0
0
0
0
1
1
0
0
0
1
1
0
0
0
0
1
0
0
1
0
1
0
0
0
0
0
1
0
0
0
1
0
0
0
0
0
0
0
0
0
0
0
0
0
0
0
0
0
0
0
0
0
0
0
0
0
0
0
1
0
0
0
0
0
0
1
0
0
0
0
0
0
0
0
0
0
0
0
0
0
0
0
0
0
0
0
0
0
0
0
0
0
0
0
0
1
0
1
0
0
0
0
0
0
0
1
0
0
0
0
0
0
0
0
0
0
0
1
0
0
0
0
0
0
0
0
0
1
0
0
0
0
0
0
0
1
0
0
0
0
0
0
0
1
0
0
0
0
0
0
0
0
0
0
0
0
0
0
0
0
0
0
0
1
0
1
0
0
0
0
0
1
0
0
0
0
0
0
0
0
0
0
0
0
0
0
0
0
0
0
0
0
0
0
0
0
0
1
0
1
0
0
0
0
0
0
0
0
0
1
0
0
0
0
0
1
0
0
0
0
0
0
0
0
0
0
0
0
0
0
0
1
0
0
0
0
0
0
0
0
1
0
0
0
0
0
0
0
0
0
0
0
0
0
0
0
0
0
0
0
0
0
0
0
0
0
0
0
0
0
0
1
0
0
0
0
0
0
0
0
0
0
0
0
0
0
0
0
1
0
0
0
0
0
0
0
0
1
0
0
0
0
0
0
0
0
0
1
0
0
0
0
0
1
0
0
0
0
0
0
0
0
0
0
0
0
0
0
0
0
0
0
0
1
0
0
0
0
0
0
1
0
0
0
0
0
0
0
0
1
0
0
0
0
0
0
0
0
0
0
0
0
0
0
1
0
0
1
0
0
0
1
0
0
0
0
0
0
0
0
0
0
0
0
0
0
0
0
1
0
0
0
0
0
0
0
0
0
0
1
0
1
0
0
0
0
0
0
1
0
0
0
0
0
0
0
0
0
0
0
0
0
0
0
0
0
0
0
0
0
0
0
0
0
0
0
1
1
0
0
0
0
0
0
1
0
0
0
0
0
0
0
0
0
0
0
0
0
1
0
0
0
0
0
0
0
1
0
0
0
0
0
0
0
0
0
0
0
0
0
0
0
0
0
0
0
0
0
0
0
0
0
0
0
1
0
0
0
0
0
0
0
0
0
0
1
0
0
1
0
0
0
0
0
0
0
0
0
0
0
0
0
0
0
0
0
0
0
0
0
0
0
0
0
0
0
0
0
1
0
0
0
0
0
0
0
1
0
0
0
0
0
0
0
1
0
0
0
0
1
0
0
0
0
0
0
0
0
0
0
0
1
0
1
0
0
0
1
0
				</DataArray>
				<DataArray type="Float64" Name="h" NumberOfComponents="1" Format="ascii">
1.2741719684
1.2741724111
1.2776861765
1.2770208451
1.2764044450
1.2776480658
1.2767505435
1.2752866979
1.2767887798
1.2743767043
1.2767838605
1.2780247454
1.2722844532
1.2762380946
1.2746915240
1.2691491430
1.2777758936
1.2731480901
1.2729564081
1.2768269608
1.2785708105
1.2698176896
1.2716135801
1.2768935799
1.2773677901
1.2688864625
1.2663923422
1.2638957679
1.2730534084
1.2756230581
1.2763924673
1.2730730452
1.2682580051
1.2786402565
1.2762236790
1.2742924795
1.2783197374
1.2680986917
1.2617459438
1.2775012264
1.2743808308
1.2678940129
1.2680592580
1.2695402724
1.2755190917
1.2662813279
1.2696339583
1.2752311738
1.2387623378
1.2410846335
1.2788354355
1.2708777818
1.2711858193
1.2613488906
1.2720157981
1.2638638442
1.2685907334
1.2726092410
1.2683801119
1.2661729556
1.2672605915
1.2703184002
1.2435036348
1.2725714500
1.2666649438
1.2601541733
1.2425064684
1.2457031812
1.2691443709
1.2722655726
1.2692283971
1.2738346309
1.2637410689
1.2593422546
1.2642782869
1.2519243208
1.2716655280
1.2648837631
1.2742801907
1.2570842195
1.2616263587
1.2589898515
1.2231983867
1.2468375565
1.2563642463
1.2527153969
1.2583677368
1.2464849363
1.2600246815
1.2261639873
1.2533891046
1.2538632636
1.2626878127
1.2290853957
1.2532518474
1.2547052173
1.2468720888
1.2579405087
1.2586943514
1.2575729487
1.2269250819
1.2621477161
1.2535411286
1.2753192615
1.2726974178
1.2428893835
1.2472080574
1.2349192920
1.2636081122
1.2552828936
1.2327499915
1.2299897700
1.2573533177
1.2489165661
1.2535416825
1.2392535676
1.2556686765
1.2743689019
1.2409528950
1.2530911798
1.2730295565
1.2489058555
1.2469938215
1.2741091219
1.2526448085
1.2356729076
1.2555431139
1.2736053129
1.2442979540
1.2366571335
1.2463545368
1.2491901649
1.2546680010
1.2411632783
1.2745661598
1.2455164140
1.2678007898
1.2375304038
1.2554746852
1.2658705780
1.2730362877
1.2743914286
1.2428193590
1.2642894421
1.2490478365
1.2508949239
1.2668250254
1.2254232607
1.2736518289
1.2229782718
1.2670855437
1.2375921922
1.2345426683
1.2269856482
1.2588297901
1.2327980590
1.2295904387
1.2718129711
1.2252448370
1.2721927969
1.2638115564
1.2280132662
1.2657853487
1.2717223560
1.2728283463
1.2285382727
1.2618755154
1.2652319006
1.2734377199
1.2306454431
1.2319551699
1.2728894680
1.2274399328
1.2711057649
1.2589221375
1.2228300071
1.2617140613
1.2185894776
1.2236373362
1.2713421575
1.2322465692
1.2555294144
1.2715595635
1.2432532320
1.2727485757
1.2731711714
1.2587893480
1.2234949659
1.2732479006
1.2734332705
1.2516045247
1.2243745533
1.2721000749
1.2551182318
1.2227838618
1.2214035945
1.2691111392
1.2472761673
1.2508686113
1.2175324669
1.2734453445
1.2412692747
1.2732916451
1.2219083752
1.2426006803
1.2682967050
1.2634549680
1.2655191632
1.2462224405
1.2595164146
1.2489995092
1.2726504473
1.2688841318
1.2690358432
1.2646738906
1.2446567210
1.2618123331
1.2672088363
1.2530010372
1.2705121565
1.2411311413
1.2242851909
1.2565374752
1.2294014023
1.2373851848
1.2149199895
1.2188269807
1.2344180080
1.2375134842
1.2214739964
1.2188925303
1.2269662071
1.2363837767
1.2154580777
1.2153205455
1.2318490639
1.2452691613
1.2590936638
1.2711173653
1.2537770015
1.2421111955
1.2620194020
1.2653957420
1.2564139900
1.2638079440
1.2612232319
1.2672996244
1.2493335050
1.2608149754
1.2640478992
1.2567668439
1.2462660817
1.2659870963
1.2410082489
1.2379175337
1.2661879208
1.2591385269
1.2627003103
1.2690315924
1.2258997096
1.2502178006
1.2320216832
1.2291951670
1.2241997374
1.2348105350
1.2139830497
1.2103102303
1.2352544303
1.2134642418
1.2187776317
1.2135767627
1.2531002380
1.2205120506
1.2308048283
1.2283317333
1.2320072548
1.2310125087
1.2267997473
1.2215258032
1.2355212305
1.2178554753
1.2111128645
1.2132254930
1.2105000823
1.2160504654
1.2232661008
1.2332016273
1.2537907184
1.2641174215
1.2618978836
1.2563186807
1.2382549710
1.2578736427
1.2600225476
1.2469649523
1.2345243140
1.2501209615
1.2561645346
1.2603707270
1.2661831158
1.2627237991
1.2584590501
1.2422697374
1.2308504689
1.2343717392
1.2506958475
1.2385842452
1.2535207200
1.2625619918
1.2272756595
1.2258208768
1.2245023569
1.2088686691
1.2296603479
1.2085851235
1.2206185142
1.2428275250
1.2151435762
1.2054713014
1.2462922344
1.2194591651
1.2295462231
1.2137952902
1.2090562285
1.2263139565
1.2280070523
1.2221338532
1.2084824982
1.2232851750
1.2178833582
1.2125919100
1.2056042296
1.2063839004
1.2270172568
1.2166467269
1.2301940780
1.2110364570
1.2504712835
1.1932285861
1.2390562063
1.2265193909
1.2427734315
1.2604386664
1.2307568380
1.2531325725
1.2475603522
1.2555450546
1.2579762492
1.1953372436
1.2181395914
1.2238792629
1.2071949504
1.2533698945
1.2587079487
1.1915711085
1.2435753232
1.2160725778
1.2300954302
1.2468709688
1.2019269749
1.2007730861
1.1897666678
1.2627180797
1.2344034240
1.2276916742
1.2507607248
1.2181501308
1.2194343596
1.2135293787
1.2588608423
1.2095627209
1.1961811245
1.2563140304
1.2008008152
1.2159873154
1.2154343484
1.2042381562
1.2418218219
1.2041647452
1.2233964482
1.2247034344
1.2103230585
1.2040939286
1.2344084478
1.2095395771
1.2385019838
1.2250366379
1.2213333478
1.2206410756
1.2061669731
1.2016579306
1.2228801167
1.2187667755
1.2156690056
1.2010220532
1.2125051326
1.2395371821
1.2266050064
1.2195526687
1.2047500138
1.2224977182
1.2077509446
1.2019440957
1.2131292343
1.2099386443
1.2036901504
1.2066904132
1.2255722240
1.2235096219
1.2023837179
1.2182003616
1.2189157887
1.2061219489
1.2184647901
1.2436868025
1.1934726476
1.2002920362
1.2344175943
1.2039416678
1.2191766300
1.2196422166
1.2158593276
1.2504580730
1.1978415867
1.1902232972
1.2122377428
1.1953989042
1.2564347743
1.1992527699
1.2231973184
1.2162278065
1.1888916600
1.2060417518
1.1935420403
1.2129947821
1.2104372689
1.1947018407
1.2030889704
1.1962551796
1.2228171938
1.2197717132
1.2099182766
1.2474977198
1.2005022032
1.2219933006
1.2391972727
1.2175070218
1.2181379361
1.2092128684
1.1983895637
1.2056144406
1.1954656443
1.2588545462
1.2196111801
1.2259939055
1.2158607154
1.1872177391
1.1924134852
1.2132856443
1.1890674806
1.2545174964
1.2214969658
1.2360563545
1.1995192903
1.2298498871
1.2121503481
1.2150742151
1.2215180710
1.2097168430
1.2448556017
1.1998899659
1.2253037211
1.2062668610
1.2177009481
1.2208062173
1.2176939353
1.1876286530
1.2004256787
1.2522851389
1.2403571804
1.2370715030
1.2165833550
1.2409200808
1.1992338704
1.1946837186
1.1916036678
1.2036003168
1.2325804732
1.2150312202
1.2212735601
1.2238318856
1.2219512504
1.1867366807
1.2501323930
1.2395369497
1.2123377369
1.2306437740
1.1892187969
1.2091798735
1.2329164721
1.2067755265
1.1980606984
1.2041789564
1.2195535899
1.2047510654
1.2207687141
1.2199566491
1.2548136887
1.2176547770
1.2206025203
1.2325802019
1.2163851896
1.2106689534
1.2253058872
1.2256468357
1.2522793846
1.2057408414
1.2216813754
1.2496553943
1.2207894616
1.2163871124
1.2168463639
1.2215103432
1.1907658777
1.2326314622
1.1980481911
1.2312546867
1.2141447122
1.2221335030
1.2122266982
1.2018962267
1.2360564258
1.2094653184
1.2422543709
1.2448527023
1.2104835725
1.2501272207
1.2306451687
1.2548077679
1.2221341764
1.2165856230
1.2051885695
1.2107915361
1.2522485187
1.2017743240
1.2266507093
1.2358565265
1.2177029336
1.2018523592
1.2175809332
1.1878134870
1.2050702121
1.2379784767
1.2211764097
1.2476561014
1.2245230290
1.2133772779
1.2237457268
1.1951900245
1.1902448429
1.2129932641
1.2289980056
1.1924199465
1.2409186338
1.2162977307
1.2030832518
1.2207709611
1.2150769939
1.2162021278
1.1954798111
1.2159600629
1.2195463843
1.2019595042
1.2152258607
1.2191775423
1.2456153563
1.2184964410
1.2263321913
1.2106706354
1.2066158207
1.2177406204
1.2092127357
1.2067767854
1.2273199321
1.2249327195
1.2363184292
1.1962627167
1.2061179823
1.2175088911
1.2213161416
1.1954122533
1.2147057115
1.2104343370
1.2186651384
1.2165065676
1.2196121477
1.2080903283
1.2482389099
1.1870374281
1.2002509275
1.2164117579
1.2078445809
1.1892548236
1.2244736503
1.2122400597
1.2116836634
1.2091125456
1.1934741871
1.2002877485
1.2169064459
1.2078568759
1.2403981136
1.1968540790
1.2230850634
1.2263326303
1.2309546384
1.2167611222
1.2422530005
1.2159619647
1.2122290632
1.2326319197
1.1874592027
1.2254880745
1.2433559134
1.2496505811
1.2118137514
1.2210028220
1.1937679156
1.2476520828
1.2172932181
1.2091127862
1.2220404444
1.2147625744
1.2133796294
1.2207909893
1.2129954605
1.2379781619
1.2012656173
1.1908434522
1.2072853003
1.2209764703
1.2522436232
1.2102379653
1.2118437010
1.2060526771
1.1865180176
1.2006827377
1.2211767423
1.2083851660
1.1906336015
1.2187221240
1.2130604232
1.2441526465
1.2326657246
1.2130989123
1.2055400808
1.2090736000
1.2266517612
1.2056012690
1.2196102138
1.2468513464
1.2375053682
1.2120358698
1.1972771946
1.1886129561
1.2101545325
1.2150865008
1.2080079246
1.2412820428
1.2264607058
1.1876887293
1.1867134370
1.2104842250
1.2121294086
1.2091990438
1.2202832233
1.2014277937
1.2203807006
1.2180048803
1.1871770075
1.1896755367
1.1997416827
1.2022534836
1.1990157929
1.2069495241
1.2132287501
1.2204981202
1.1940154596
1.1880744048
1.1910998958
1.2108164854
1.2168660404
1.2189218632
1.2226379577
1.2206484408
1.1952797376
1.1922111377
1.2027617026
1.1988602549
1.2125547888
1.1898326866
1.1876753232
1.2201658858
1.1908415167
1.1948947171
1.2169075646
1.1874480309
1.2050705804
1.1887640392
1.2236406472
1.2177629945
1.1878022505
1.2230856602
1.1882286588
1.1869446984
1.2289981044
1.1871872384
1.2287569594
1.2263365200
1.1893344827
1.1868865466
1.2374592939
1.2743110830
1.2754914567
1.2754915989
1.2743090068
1.2777076951
1.2780230106
1.2767828915
1.2760349854
1.2757411781
1.2776458137
1.2764058248
1.2757431772
1.2767881613
1.2746927003
1.2767499000
1.2751390735
1.2760368190
1.2777089044
1.2738835201
1.2731483166
1.2770233625
1.2776881710
1.2729593885
1.2756223662
1.2708745660
1.2781668139
1.2752859254
1.2688886357
1.2773651125
1.2743772204
1.2715633944
1.2722842469
1.2784213005
1.2677502466
1.2714164667
1.2751398656
1.2763905051
1.2738834475
1.2786366804
1.2682584908
1.2730734620
1.2661704443
1.2774987906
1.2608384940
1.2777792223
1.2691476192
1.2680582701
1.2617199205
1.2781690526
1.2708745809
1.2743799326
1.2762400499
1.2768301733
1.2784246288
1.2716127620
1.2734370447
1.2698163562
1.2779606702
1.2715615716
1.2785741644
1.2714167514
1.2701192234
1.2631419688
1.2752312596
1.2677495565
1.2755181555
1.2788310673
1.2696308319
1.2639087225
1.2768957082
1.2730545298
1.2685878690
1.2623417491
1.2663962513
1.2763585753
1.2723332426
1.2608595114
1.2698819675
1.2773077023
1.2661722259
1.2711826879
1.2734332838
1.2376454115
1.2471270689
1.2701170039
1.2779641891
1.2755627513
1.2631517621
1.2742931727
1.2666543282
1.2681018798
1.2724521729
1.2762253500
1.2435470199
1.2457408420
1.2652655518
1.2783234828
1.2725731319
1.2698747020
1.2717753407
1.2698976737
1.2695458913
1.2593681235
1.2645579792
1.2738370742
1.2637289731
1.2715764966
1.2603302647
1.2651154064
1.2763600710
1.2678687350
1.2773110079
1.2678922252
1.2716698962
1.2692355333
1.2610422562
1.2642949937
1.2623627817
1.2655316633
1.2691476141
1.2781510409
1.2723331372
1.2722646124
1.2755634521
1.2724468617
1.2581952703
1.2652628768
1.2487464396
1.2704411066
1.2396787687
1.2387106289
1.2708796182
1.2470848972
1.2662934366
1.2589890141
1.2468616571
1.2641675711
1.2375969922
1.2410407808
1.2672578227
1.2703195015
1.2655397251
1.2643329334
1.2610165672
1.2683704344
1.2688392322
1.2645411313
1.2530007564
1.2608960320
1.2717698078
1.2781551826
1.2687677767
1.2720128566
1.2682326857
1.2715749408
1.2678689232
1.2638705946
1.2610058154
1.2656776137
1.2603535888
1.2613285896
1.2698885018
1.2661570580
1.2538357890
1.2726075963
1.2651282073
1.2626971612
1.2487137472
1.2753170280
1.2586689077
1.2641547233
1.2572706232
1.2704307662
1.2621488784
1.2410159710
1.2599037661
1.2493828940
1.2601665174
1.2269641249
1.2424813972
1.2764289429
1.2579161462
1.2651574555
1.2546816602
1.2660757446
1.2396435430
1.2575821854
1.2428953356
1.2582188776
1.2239512843
1.2609957290
1.2636227822
1.2300455422
1.2643288253
1.2656632063
1.2573702344
1.2687560936
1.2519501289
1.2316798559
1.2688272282
1.2648735807
1.2609113352
1.2537977141
1.2530226074
1.2328063250
1.2552761456
1.2682258568
1.2598923313
1.2239336372
1.2594461724
1.2651574073
1.2527432955
1.2489003211
1.2586880755
1.2764319885
1.2720072736
1.2660606105
1.2493666818
1.2563899780
1.2571115001
1.2583621372
1.2231746704
1.2616224554
1.2556798446
1.2742797899
1.2410015261
1.2730293809
1.2464811786
1.2572925091
1.2537850323
1.2491697333
1.2350340759
1.2700769155
1.2357151252
1.2567505216
1.2496666064
1.2600020867
1.2532680655
1.2290312439
1.2365569619
1.2261209525
1.2533714462
1.2404804487
1.2740119376
1.2526770255
1.2555701190
1.2316315418
1.2366681784
1.2535411889
1.2321002771
1.2338675133
1.2594316979
1.2720073283
1.2586591321
1.2444755022
1.2745665649
1.2455341108
1.2547046221
1.2726973557
1.2468841406
1.2490198442
1.2365522960
1.2743925500
1.2516145472
1.2700769745
1.2365415180
1.2488859496
1.2348733686
1.2691492899
1.2740139089
1.2496433235
1.2535238964
1.2736531837
1.2349957104
1.2428279956
1.2736483868
1.2392457011
1.2567289983
1.2509051103
1.2404496256
1.2472326752
1.2744976410
1.2484165529
1.2356467157
1.2348784246
1.2320789260
1.2444354511
1.2684405928
1.2407593439
1.2316270743
1.2552328241
1.2530557798
1.2338396569
1.2375987236
1.2743680091
1.2515096715
1.2409286936
1.2753107785
1.2670852507
1.2345471866
1.2588316022
1.2691503997
1.2736459436
1.2652352119
1.2728293872
1.2515768025
1.2273312945
1.2744961200
1.2729507776
1.2223745302
1.2397485543
1.2365395786
1.2741069896
1.2442932314
1.2638140548
1.2734274290
1.2470173016
1.2463425583
1.2753221354
1.2657853865
1.2479581813
1.2280158757
1.2736028331
1.2252494426
1.2552278290
1.2678049233
1.2411583230
1.2320613058
1.2387423890
1.2315969320
1.2367533320
1.2375263620
1.2274468008
1.2758790099
1.2700584338
1.2554717119
1.2753109789
1.2356402564
1.2684396101
1.2348730869
1.2484372567
1.2515034560
1.2306486352
1.2482460937
1.2407546086
1.2319622254
1.2711079335
1.2229750921
1.2715635857
1.2422253640
1.2734266917
1.2729480531
1.2281072172
1.2296831174
1.2253437130
1.2642889454
1.2254204574
1.2668218580
1.2713453628
1.2223718836
1.2753226023
1.2397559826
1.2710041387
1.2730339213
1.2322526508
1.2479529526
1.2617125875
1.2517435272
1.2658675300
1.2273275246
1.2725418308
1.2732514441
1.2327945875
1.2295846513
1.2700548434
1.2405770194
1.2320584107
1.2749402558
1.2758806124
1.2387521123
1.2727526419
1.2367477667
1.2269775000
1.2718107724
1.2482420864
1.2587733560
1.2431378103
1.2227930418
1.2618818159
1.2725385786
1.2280952209
1.2214085702
1.2709998966
1.2253380750
1.2517398346
1.2250507454
1.2726130362
1.2296787421
1.2422484175
1.2728514997
1.2243824746
1.2444150729
1.2717190830
1.2285302832
1.2550962354
1.2196459339
1.2721887919
1.2412457241
1.2215756041
1.2728854958
1.2732963435
1.2589308425
1.2219140744
1.2406023044
1.2734344548
1.2734500929
1.2749397482
1.2508474974
1.2207508008
1.2236294375
1.2708390860
1.2726088724
1.2728482854
1.2726550035
1.2196456753
1.2250467795
1.2697368590
1.2205861392
1.2555450272
1.2444097927
1.2228208919
1.2431656567
1.2724893262
1.2727827500
1.2185876575
1.2688884138
1.2462045963
1.2516228526
1.2188941649
1.2215669488
1.2734286511
1.2207420098
1.2210096557
1.2190594555
1.2432751566
1.2731663690
1.2234881550
1.2411160795
1.2673046515
1.2612276934
1.2680456604
1.2638120050
1.2472925944
1.2727781462
1.2400786133
1.2715804536
1.2564094930
1.2663215201
1.2708352960
1.2452564584
1.2720955301
1.2715909146
1.2205776024
1.2691083186
1.2698088021
1.2627045290
1.2648843700
1.2410000521
1.2591399424
1.2659920716
1.2493194197
1.2724849001
1.2711215864
1.2697329872
1.2175092204
1.2365900070
1.2426141086
1.2210050578
1.2233194619
1.2530894624
1.2190512186
1.2283483196
1.2355077018
1.2132249252
1.2178864915
1.2166873389
1.2331796142
1.2352535061
1.2205602999
1.2175254358
1.2259403362
1.2347871826
1.2134690792
1.2156063193
1.2139854218
1.2307980700
1.2490168656
1.2563228705
1.2629905698
1.2705076808
1.2501152988
1.2382488698
1.2663175814
1.2400880411
1.2680425989
1.2698216942
1.2337741147
1.2600292698
1.2641234276
1.2715759094
1.2595187209
1.2655166126
1.2634505830
1.2682919087
1.2530174271
1.2584651614
1.2625684876
1.2715865470
1.2535205237
1.2422599302
1.2672042555
1.2446705221
1.2343707813
1.2612951279
1.2673089061
1.2618095991
1.2648802023
1.2646714651
1.2698044824
1.2269155490
1.2462826204
1.2306488604
1.2301933132
1.2279881845
1.2232895423
1.2364127198
1.2155930301
1.2153208470
1.2084803462
1.2375226900
1.2154518179
1.2116465215
1.2179265533
1.2126226963
1.2565475768
1.2175081023
1.2214258010
1.2318509327
1.2293758017
1.2296676573
1.2295340585
1.2258072729
1.2206457340
1.2374066439
1.2187991477
1.2166779321
1.2088715455
1.2365926221
1.2149223123
1.2090578748
1.2151873918
1.2104975592
1.2242261250
1.2344387911
1.2504742299
1.2591504885
1.2653900197
1.2698170730
1.2604456068
1.2590887456
1.2421220733
1.2276153544
1.2555521605
1.2337747407
1.2620137269
1.2427686493
1.2307548057
1.2537812117
1.2629845680
1.2533755687
1.2587155289
1.2673042297
1.2641162402
1.2608093949
1.2462789033
1.2276925821
1.2572137614
1.2379234256
1.2612884009
1.2468699612
1.2343981312
1.2567652658
1.2640417587
1.2255763406
1.2268110141
1.2235003006
1.2111089450
1.2320038550
1.2077748266
1.2214888754
1.2384954423
1.2160037559
1.2104838215
1.2066989790
1.2036839798
1.2251441583
1.2502279272
1.2187649740
1.2310325689
1.2131573222
1.2104995989
1.2250343940
1.2292181945
1.2213228162
1.2103132437
1.2306453469
1.2056573423
1.2241881289
1.2187267489
1.2135466822
1.2042362491
1.2040920532
1.2247086782
1.2160013607
1.2320297416
1.2103549480
1.2116344241
1.1934633656
1.2162257699
1.2220872265
1.2039406743
1.2537866460
1.2591428885
1.1923834280
1.1933289122
1.2344143684
1.2177301373
1.2231956919
1.2469689374
1.2053191455
1.1978392054
1.1906632758
1.2618910677
1.2345294647
1.2276140898
1.2504635106
1.2436882070
1.2578665845
1.2189135674
1.2195446279
1.2104352492
1.2564417499
1.2121647604
1.1986939240
1.2548576734
1.1954532736
1.2181382290
1.2214956112
1.2068478444
1.2561584951
1.2603632008
1.1921842286
1.1914961291
1.2391960546
1.2152644474
1.2259910923
1.2506953776
1.2025728285
1.2005220644
1.1907530935
1.2641109170
1.2385921066
1.2308515708
1.2526866747
1.2475014602
1.2572060939
1.2191165850
1.2197606975
1.2131996088
1.2603916585
1.2087734391
1.1957650367
1.2545245574
1.2045929402
1.1992228758
1.2205963777
1.2166248655
1.2127521019
1.2022021274
1.2150285976
1.2056056852
1.2403576580
1.2382865634
1.2239624574
1.2036140277
1.2212733916
1.2020121866
1.2219531490
1.2056474782
1.2270102997
1.2032797691
1.2110004822
1.2130430713
1.2063831136
1.2298461327
1.2091937416
1.2428349042
1.2263210174
1.2221453016
1.2022034779
1.2199534845
1.2041780062
1.1995104056
1.2208059530
1.2194565417
1.2164110022
1.1998842284
1.2121555128
1.2066897907
1.2431326113
1.2409025644
1.2248160328
1.2014060963
1.2178084056
1.2037503595
1.2215182262
1.2085607400
1.2251423495
1.2002497449
1.2137597034
1.2097158826
1.2054755459
1.2062845895
1.2272734372
1.2245164677
1.2004245544
1.2176887317
1.2191733920
1.1969705816
1.2061387955
1.1984121188
1.2216797802
1.2177329084
1.2168438116
1.2123458360
1.2475579184
1.1939024079
1.2043090036
1.2005196804
1.1938927029
1.2231370121
1.2390588960
1.2036205933
1.2197374937
1.2195465919
1.2160011339
1.2170678722
1.2196354616
1.2531265122
1.1977320850
1.1906745434
1.2122878223
1.1951850364
1.2036209009
1.2018932767
1.1966429403
1.2579689912
1.2199829041
1.1986965827
1.2265221128
1.2181522070
1.2196409472
1.1878043820
1.1902364954
1.2160021030
1.2094626927
1.1887915958
1.2053207664
1.1933355479
1.1911136890
1.2548504174
1.2220896092
1.2121668914
1.2100801455
1.1902116980
1.2181422137
1.1937984560
1.2031700186
1.1992491801
1.1970590147
1.2210936837
1.2194366416
1.2183887270
1.2083013349
1.2507562509
1.1923951911
1.2017479405
1.1979432480
1.2245639360
1.2435754570
1.2007731912
1.2177838331
1.2181009305
1.2180995789
1.2162383672
1.2526801401
1.1953417067
1.1915809726
1.2092276616
1.1975567705
1.2045238149
1.1973056623
1.2603858184
1.2206222991
1.2129920185
1.2019290438
1.2300996027
1.2170700189
1.1874491555
1.1919270890
1.2135316373
1.2119486243
1.1881502599
1.2087750390
1.1957697375
1.1895411111
1.2563063179
1.2238808516
1.2152665312
1.2071962319
1.2404523852
1.2016620939
1.1968519383
1.1892489046
1.2014018771
1.2344127374
1.2370713058
1.2124947740
1.2178088222
1.2195452459
1.2151989322
1.2224974184
1.2099396728
1.1870309088
1.2502252062
1.2382862945
1.2478888817
1.2010279713
1.2071987988
1.2301832385
1.1906295190
1.2066688879
1.2308403329
1.2093175081
1.1945800582
1.2045943730
1.2266056061
1.2071138840
1.2071149942
1.2212482804
1.2228769995
1.2182062675
1.1872364123
1.2023849859
1.2067891288
1.2538313395
1.2418208172
1.2184949925
1.2222650328
1.2353010304
1.2278303833
1.2177449424
1.2366754607
1.2061965778
1.2446596757
1.2008088848
1.1934712576
1.1907282729
1.2041501048
1.2356110826
1.2154346938
1.2248162072
1.2211091653
1.2233926804
1.2067900543
1.1865107880
1.2520242700
1.2409020228
1.2478261155
1.2021989262
1.2104336080
1.2354722588
1.1884421173
1.2095197872
1.2353008943
1.2048713804
1.1967824965
1.2061682649
1.2239633049
1.2037514289
1.2098183413
1.2252206216
1.2205987462
1.2206455731
1.1868001353
1.2022043567
1.2563611223
1.2431316556
1.2301372368
1.2178794084
1.2183248320
1.2392166523
1.2308402850
1.2187385899
1.2087341936
1.2138082791
1.2502199765
1.2301849878
1.2231378523
1.2538247825
1.2043113700
1.2228182194
1.2178825673
1.2055222208
1.2204950576
1.2157672541
1.2481439840
1.2059018008
1.1900048162
1.2161061079
1.2154297452
1.2348424872
1.2187412388
1.2018831342
1.2154327534
1.2132003296
1.2196372930
1.2133758404
1.1977300725
1.1921994640
1.2256462771
1.2191195686
1.1900137604
1.2017951252
1.2278369061
1.1969741461
1.2005218645
1.2250705639
1.2328515368
1.2191707449
1.2453844458
1.2123481710
1.2095652362
1.2200720410
1.2225780305
1.1935350812
1.2156792333
1.2256366606
1.1932424161
1.1918268502
1.2197624908
1.2009340341
1.1879940200
1.2113684863
1.2268566019
1.2009369853
1.1945069397
1.2404516157
1.2139622410
1.2082433354
1.2388415626
1.2478851847
1.1961850527
1.2114470685
1.2520179403
1.2354728405
1.2225727043
1.2563553571
1.2083036637
1.2200729814
1.2141426655
1.2177476468
1.2058821496
1.2197738793
1.2113578576
1.2507657536
1.2022530398
1.2216390209
1.2338087100
1.2212509279
1.2025720365
1.2184625635
1.2132883167
1.2219946535
1.2177622889
1.1897780408
1.1980448591
1.1888011428
1.2059774676
1.2337982298
1.2005049854
1.2228982659
1.2316869106
1.2456831884
1.2162405925
1.1879856008
1.2225721811
1.2260691584
1.2137621556
1.2236396049
1.1938034070
1.1890754972
1.2106547201
1.2282952879
1.1983931262
1.1911200886
1.2446574916
1.2177197248
1.2056170308
1.2427395971
1.2478219399
1.2031613219
1.2252230982