<VTKFile type="UnstructuredGrid" version="0.1">
	<UnstructuredGrid>
		<Piece NumberOfPoints="1862" NumberOfCells="3498">
			<CellData>
				<DataArray type="Int32" Name="type" NumberOfComponents="1" Format="ascii">
0
0
0
0
0
0
0
0
0
0
0
0
0
0
0
0
1
0
0
1
0
0
0
0
0
0
0
0
0
0
0
0
0
1
0
0
0
0
0
0
0
0
0
0
0
0
0
0
0
0
1
0
0
0
0
0
0
0
0
0
0
1
0
0
0
0
0
0
0
0
0
0
0
0
0
0
0
0
0
0
0
0
0
0
0
0
0
0
0
0
0
0
0
0
0
0
0
0
0
0
0
0
0
0
0
0
0
0
0
0
0
0
0
0
0
0
0
0
0
0
0
0
0
1
0
0
0
0
0
0
0
0
0
0
0
0
0
0
0
0
0
0
0
0
0
0
0
0
0
0
0
1
0
1
1
0
0
0
0
0
0
0
0
0
0
0
0
0
1
0
1
0
0
0
0
1
0
0
0
0
0
0
0
0
1
1
0
0
0
0
0
1
0
0
0
0
0
0
0
0
1
0
0
0
0
0
0
0
0
0
0
0
0
0
0
0
0
0
0
0
0
0
0
0
0
0
0
0
0
0
0
0
0
1
0
0
0
0
0
0
0
0
0
0
0
0
0
0
0
0
0
0
0
0
0
0
0
0
0
0
0
0
0
0
0
0
0
0
0
0
0
0
0
0
0
0
0
0
0
0
0
1
0
0
0
0
0
0
0
0
0
0
0
0
0
0
0
0
0
0
0
0
0
0
0
0
0
0
0
0
0
0
0
0
0
0
0
0
0
0
0
0
0
0
0
0
0
0
0
0
0
0
1
0
0
0
0
0
0
0
0
0
0
0
0
0
0
0
0
0
0
0
0
0
0
0
0
0
0
0
0
0
0
0
0
0
0
0
0
0
0
0
0
0
0
0
0
0
0
0
0
0
0
0
0
0
0
0
0
0
1
0
0
0
0
0
0
0
0
0
0
0
0
0
0
0
0
0
0
0
0
0
0
0
0
0
0
0
0
0
0
0
0
0
0
0
0
0
0
0
0
0
0
0
0
0
0
0
0
0
0
0
0
0
0
0
0
0
0
0
0
0
0
0
0
0
0
0
0
0
0
0
0
0
0
0
0
0
0
0
0
0
0
0
0
0
0
0
0
0
0
0
0
0
0
0
0
0
0
0
0
0
0
0
0
0
0
0
0
0
0
0
0
0
0
0
0
0
0
0
0
0
0
0
0
0
0
0
0
0
0
0
0
1
0
0
0
0
0
0
0
0
0
0
0
0
0
0
0
0
0
0
0
1
0
0
0
0
0
0
0
0
0
0
0
0
0
0
0
0
0
0
0
0
0
0
0
0
0
0
0
0
0
0
0
0
0
0
0
0
0
0
0
0
0
0
0
0
0
0
0
0
0
0
0
0
0
1
0
0
0
0
0
0
0
0
0
0
0
0
0
0
0
0
0
0
0
0
0
0
0
1
0
0
0
0
0
0
0
0
0
0
0
0
0
0
0
0
0
0
0
1
0
0
0
1
0
0
0
0
0
0
0
0
0
0
0
0
0
0
0
0
0
0
0
0
0
0
0
0
0
1
0
0
0
0
0
0
0
1
0
0
0
0
0
0
0
0
0
0
0
0
0
0
0
0
0
0
0
0
0
0
0
0
0
0
1
0
0
0
0
0
0
0
1
0
0
0
0
0
0
1
0
0
0
0
0
0
0
0
0
0
0
0
0
0
0
0
0
0
0
0
0
0
0
0
0
0
0
0
0
0
0
0
0
0
0
0
0
0
1
0
0
0
0
0
1
0
0
0
0
0
0
0
1
0
0
0
0
0
0
0
0
0
0
0
0
0
1
0
0
0
0
0
0
0
0
0
0
0
0
0
0
0
0
0
0
0
0
0
0
0
0
0
0
0
0
0
0
0
0
0
0
0
0
0
0
0
0
0
0
0
0
0
0
0
0
0
0
0
0
0
1
0
0
0
0
0
0
0
0
0
0
0
0
0
0
0
0
0
0
0
1
0
0
0
0
0
0
0
0
0
1
0
0
0
0
0
0
0
0
0
0
0
0
0
0
0
0
0
0
0
0
0
0
0
0
0
0
0
0
0
1
0
1
0
0
0
0
0
0
0
0
0
0
0
0
0
0
0
0
0
0
0
0
0
0
0
0
0
0
0
1
0
0
0
1
0
0
0
0
0
0
0
0
0
0
0
0
0
0
0
0
0
0
0
0
0
0
0
0
0
0
0
0
1
0
0
0
0
0
0
0
0
0
0
0
0
0
0
0
0
0
0
0
0
0
0
0
0
0
1
0
0
0
0
0
0
0
0
0
0
0
0
0
0
0
0
0
0
0
0
0
0
0
1
0
0
0
0
0
0
1
0
0
0
0
0
0
0
0
0
0
0
1
0
0
0
0
0
0
0
0
0
0
0
0
0
0
0
0
0
0
0
0
1
0
0
0
0
0
0
0
0
0
0
0
1
0
0
0
0
0
0
0
0
0
0
0
0
0
0
0
0
0
0
0
0
0
1
0
0
0
0
0
0
0
0
0
1
1
0
1
0
1
0
0
0
0
0
0
0
0
0
0
0
1
0
0
0
0
0
1
1
0
0
0
0
0
0
1
0
0
0
0
0
1
1
1
0
0
0
0
0
0
0
0
0
0
0
0
1
1
0
0
1
0
0
0
0
0
1
0
0
0
1
0
1
0
0
0
0
0
0
0
1
0
0
0
0
0
0
0
1
0
0
1
0
0
0
0
0
0
0
0
0
0
0
0
0
0
0
1
0
0
0
0
0
0
0
0
0
0
0
0
0
0
0
0
0
0
0
0
0
0
0
0
0
0
0
0
0
0
0
0
0
0
0
0
1
0
0
0
0
0
0
1
0
0
0
1
0
0
0
0
0
0
0
0
0
0
0
1
0
0
0
0
0
0
0
0
0
0
0
0
0
0
0
0
0
0
0
0
0
0
0
0
0
0
0
0
0
0
0
0
0
0
0
0
0
0
0
0
1
1
0
0
0
0
0
0
0
0
0
0
0
0
0
1
0
0
0
0
0
0
0
0
0
0
0
0
0
0
0
0
0
0
0
0
0
0
0
0
0
0
0
0
0
0
0
0
0
0
0
0
0
0
0
0
0
0
0
0
0
0
0
0
0
0
0
0
0
0
0
0
0
0
0
0
0
0
0
0
0
0
0
0
0
0
0
0
1
1
0
0
0
0
0
0
0
0
1
0
0
0
0
0
0
0
0
0
0
0
0
0
0
0
0
0
0
0
0
0
0
0
1
0
0
0
0
0
0
0
0
0
0
0
0
0
0
0
0
1
0
0
0
0
0
0
0
0
0
0
0
0
0
0
0
0
0
0
0
0
0
0
0
0
0
0
0
0
0
0
0
0
0
0
0
0
0
0
0
0
0
0
0
0
0
0
0
0
0
0
0
0
0
0
0
0
0
0
0
0
0
0
0
0
0
0
0
0
0
0
0
0
0
0
0
0
0
0
0
0
0
0
0
0
0
0
0
0
0
0
1
1
0
0
0
0
0
1
0
0
0
0
0
0
0
0
0
0
0
0
1
0
0
0
0
0
0
0
0
0
0
0
0
0
0
0
0
0
0
0
0
0
0
0
0
0
0
0
0
0
0
0
0
0
0
0
0
0
0
0
0
0
0
0
0
0
0
0
0
0
0
0
0
0
1
0
1
0
0
0
0
0
0
0
0
0
0
0
0
0
0
0
0
0
0
1
0
0
0
0
0
0
0
0
0
0
0
0
0
0
0
0
0
0
0
0
0
0
0
0
0
0
0
0
0
0
0
0
0
0
0
0
0
0
0
0
0
0
0
0
0
0
0
0
0
0
0
0
0
0
0
0
0
0
0
0
0
0
0
0
0
0
0
0
0
0
1
0
0
0
0
0
0
0
0
0
0
1
0
0
0
0
0
0
0
0
0
0
0
0
0
0
0
0
0
0
0
0
0
0
0
0
0
0
0
0
0
0
0
0
0
0
0
0
0
1
0
0
0
0
0
0
0
0
0
0
0
0
0
0
0
0
0
0
0
0
0
0
0
0
0
0
0
0
0
0
0
0
0
0
0
0
0
0
0
0
0
0
0
0
0
0
0
0
0
0
0
0
0
0
0
0
0
0
0
0
0
0
0
0
0
0
0
0
0
0
0
0
0
0
0
0
0
0
0
0
0
1
0
0
0
0
0
0
0
0
0
0
0
0
0
0
0
0
0
0
0
0
0
0
0
0
0
0
0
0
0
0
0
0
0
0
0
0
0
0
0
0
0
0
0
0
0
0
0
0
0
0
0
0
0
0
0
0
0
0
0
0
0
0
0
0
0
0
0
0
0
0
0
0
0
0
0
0
0
0
0
0
0
0
0
0
0
0
0
0
0
0
0
0
0
0
0
0
0
0
0
0
0
0
0
0
0
0
0
0
0
0
0
0
0
0
0
0
0
0
0
0
0
0
0
1
0
0
0
0
0
0
0
0
0
0
0
0
0
0
0
0
0
0
0
0
0
0
0
0
0
0
0
0
0
0
0
0
0
0
0
0
0
0
0
0
0
0
0
0
0
0
0
0
0
0
0
0
0
0
0
0
0
0
0
0
0
0
0
0
0
0
0
0
0
0
0
0
0
0
0
0
0
0
0
0
0
1
0
0
0
0
0
0
0
1
0
0
0
0
0
0
0
0
0
0
0
0
0
0
0
0
0
0
0
0
0
0
0
0
0
0
0
0
0
0
0
0
0
0
0
0
0
1
0
0
0
0
0
0
0
0
0
0
0
0
0
0
0
0
0
0
0
0
0
1
0
0
0
0
0
0
0
0
0
0
0
0
1
1
0
0
0
0
0
0
0
0
0
0
0
0
0
0
0
1
1
0
1
0
0
0
0
0
0
0
0
0
1
0
0
0
0
0
0
1
0
0
0
0
0
0
0
0
0
0
1
0
0
0
0
1
0
1
0
0
0
0
0
0
0
1
0
0
0
1
0
0
0
1
0
1
1
0
0
1
1
0
0
0
1
0
0
0
1
0
0
0
0
0
0
0
0
0
1
0
0
0
0
0
0
1
0
0
0
0
0
0
0
0
0
0
0
0
0
0
0
0
0
0
0
0
0
0
0
0
0
0
0
1
0
0
1
0
0
0
0
0
0
0
0
0
0
0
0
0
0
0
0
0
0
1
0
0
1
0
0
0
0
0
0
0
0
0
0
0
1
0
0
1
0
0
0
0
0
0
0
0
0
0
0
1
1
0
0
0
0
0
0
0
0
0
0
0
0
1
0
0
0
0
0
0
0
0
0
0
0
0
0
0
0
0
0
1
0
0
0
0
0
0
0
0
0
0
0
0
0
0
0
0
0
1
0
0
0
0
0
0
0
0
0
0
0
0
0
0
0
0
0
0
0
0
0
0
0
0
0
0
0
0
0
0
0
0
0
0
0
0
0
0
0
0
1
0
0
0
0
0
0
0
0
0
0
0
0
0
0
0
0
0
0
0
0
0
0
0
0
0
0
0
0
0
0
0
0
0
0
0
0
0
0
0
0
0
0
0
0
0
1
0
0
0
0
0
0
0
0
0
0
0
0
0
0
0
0
0
0
0
0
0
0
0
0
0
0
0
0
0
0
0
0
0
0
0
0
0
0
0
0
0
0
0
0
0
0
0
1
0
0
0
0
0
0
0
0
0
0
1
0
0
0
0
0
0
0
0
0
0
0
0
0
0
0
1
0
0
1
0
0
0
0
0
0
0
0
0
0
0
0
0
0
0
0
0
0
0
0
0
0
0
1
0
0
0
0
0
0
0
0
0
0
0
0
0
0
0
0
0
0
0
0
0
0
0
0
0
0
0
0
0
0
0
0
0
0
0
1
0
0
0
0
0
0
0
0
0
0
0
0
0
0
0
0
0
0
0
0
0
0
0
0
0
0
0
0
0
0
0
0
0
0
0
0
0
0
0
0
0
0
0
0
0
0
0
0
0
0
0
0
0
0
0
0
0
0
0
0
0
0
0
0
0
0
0
0
0
0
0
0
0
0
0
0
1
0
0
0
0
0
0
0
0
0
0
0
0
0
0
0
0
0
0
0
0
0
0
0
0
0
0
0
0
0
0
0
0
0
0
0
0
0
0
0
1
0
0
0
0
0
0
0
0
0
0
0
0
1
1
0
0
0
0
0
0
0
0
0
0
0
0
0
0
0
0
0
0
0
0
0
0
0
0
0
0
0
0
0
0
0
0
0
0
0
0
0
0
0
0
0
0
0
0
0
0
0
0
0
0
0
0
0
0
0
0
0
0
0
0
0
0
0
0
0
0
0
0
0
0
0
0
0
0
0
0
0
0
0
0
0
0
0
0
0
0
0
0
0
0
0
0
0
0
0
0
0
0
0
0
0
1
0
1
0
0
0
0
0
0
0
1
1
1
1
0
0
0
0
0
0
0
0
0
0
0
0
0
0
0
0
0
0
0
0
0
0
0
0
0
0
0
0
1
1
0
0
0
0
0
0
0
0
0
0
0
0
0
0
0
0
0
0
1
0
0
0
0
0
0
0
1
1
0
1
1
0
0
1
0
0
0
0
0
0
0
1
0
1
0
0
0
0
0
0
0
0
0
0
0
0
0
0
0
0
0
0
0
0
0
0
0
0
0
0
0
1
1
0
0
0
1
1
0
0
0
0
1
0
0
1
0
1
0
0
0
0
0
1
0
0
0
1
0
0
0
0
0
0
0
0
0
0
0
0
0
0
0
0
0
0
0
0
0
0
0
0
0
0
0
1
0
0
0
0
0
0
1
0
0
0
0
0
0
0
0
0
0
0
0
0
0
0
0
0
0
0
0
0
0
0
0
0
0
0
0
0
1
0
1
0
0
0
0
0
0
0
1
0
0
0
0
0
0
0
0
0
0
0
1
0
0
0
0
0
0
0
0
0
1
0
0
0
0
0
0
0
1
0
0
0
0
0
0
0
1
0
0
0
0
0
0
0
0
0
0
0
0
0
0
0
0
0
0
0
1
0
1
0
0
0
0
0
1
0
0
0
0
0
0
0
0
0
0
0
0
0
0
0
0
0
0
0
0
0
0
0
0
0
1
0
1
0
0
0
0
0
0
0
0
0
1
0
0
0
0
0
1
0
0
0
0
0
0
0
0
0
0
0
0
0
0
0
1
0
0
0
0
0
0
0
0
1
0
0
0
0
0
0
0
0
0
0
0
0
0
0
0
0
0
0
0
0
0
0
0
0
0
0
0
0
0
0
1
0
0
0
0
0
0
0
0
0
0
0
0
0
0
0
0
1
0
0
0
0
0
0
0
0
1
0
0
0
0
0
0
0
0
0
1
0
0
0
0
0
1
0
0
0
0
0
0
0
0
0
0
0
0
0
0
0
0
0
0
0
1
0
0
0
0
0
0
1
0
0
0
0
0
0
0
0
1
0
0
0
0
0
0
0
0
0
0
0
0
0
0
1
0
0
1
0
0
0
1
0
0
0
0
0
0
0
0
0
0
0
0
0
0
0
0
1
0
0
0
0
0
0
0
0
0
0
1
0
1
0
0
0
0
0
0
1
0
0
0
0
0
0
0
0
0
0
0
0
0
0
0
0
0
0
0
0
0
0
0
0
0
0
0
1
1
0
0
0
0
0
0
1
0
0
0
0
0
0
0
0
0
0
0
0
0
1
0
0
0
0
0
0
0
1
0
0
0
0
0
0
0
0
0
0
0
0
0
0
0
0
0
0
0
0
0
0
0
0
0
0
0
1
0
0
0
0
0
0
0
0
0
0
1
0
0
1
0
0
0
0
0
0
0
0
0
0
0
0
0
0
0
0
0
0
0
0
0
0
0
0
0
0
0
0
0
1
0
0
0
0
0
0
0
1
0
0
0
0
0
0
0
1
0
0
0
0
1
0
0
0
0
0
0
0
0
0
0
0
1
0
1
0
0
0
1
0
				</DataArray>
				<DataArray type="Float64" Name="h" NumberOfComponents="1" Format="ascii">
1.2173271084
1.2173783923
1.2023478933
1.2124327072
1.2020231018
1.2045021541
1.2080895359
1.2207467998
1.2117684948
1.2307083480
1.2169874580
1.2054074231
1.2243025387
1.2213720621
1.2212080352
1.2343241605
1.2083639472
1.2301379520
1.2197038138
1.2169890665
1.1980707808
1.2242242968
1.2118543612
1.1981426777
1.2126013528
1.2385093102
1.2184696445
1.1992582018
1.2047016607
1.2256811378
1.2211141095
1.2094144343
1.2265324510
1.2013094517
1.1900490716
1.1983904210
1.1930621998
1.2116223579
1.2004272543
1.1967081392
1.2023898498
1.1962786727
1.2162873401
1.2049740123
1.1964726355
1.1999266289
1.2091918057
1.1898861401
1.2048561187
1.2056233886
1.1955472113
1.1993054359
1.2027401664
1.1955462223
1.1948099454
1.2152505556
1.1983041026
1.1883269327
1.1904832529
1.1927993645
1.1879577216
1.1873986682
1.2017810901
1.1972864244
1.2028382397
1.1980335547
1.2060050159
1.2026509763
1.1883173435
1.1877553732
1.1893075956
1.1931023286
1.2112015366
1.1959171504
1.1927267646
1.2012309021
1.1892844141
1.1902626022
1.1881744364
1.2006949024
1.1884902100
1.1978732874
1.2085178699
1.2031777425
1.2024638885
1.2007016195
1.1895572339
1.2036028673
1.1932210124
1.2103341222
1.1931601935
1.2005842230
1.1897233181
1.2115005535
1.2003749593
1.1998579585
1.2039466617
1.2016759479
1.1995648520
1.1906444462
1.2078459608
1.1884075384
1.2000787454
1.1883626131
1.2398861023
1.2064615931
1.2029348224
1.2059498643
1.1916632044
1.1993120468
1.2102010623
1.2093486876
1.1928323941
1.1968709304
1.1995444431
1.1946359838
1.1988513823
1.2347287417
1.1979586350
1.1988884550
1.2377998084
1.2027593260
1.2022373238
1.2390186937
1.1963000609
1.2036157411
1.1980964466
1.2418808247
1.1917217005
1.1971100589
1.1936514975
1.2021696202
1.1972558439
1.1910111114
1.2335234470
1.1956068605
1.2442584272
1.1926080860
1.1892187191
1.2324527822
1.2449994475
1.2359064488
1.1930849732
1.2247193252
1.2017784303
1.1918175391
1.2392372299
1.1979506708
1.2393828716
1.1962114932
1.2462083752
1.1910368203
1.1922107722
1.1918394636
1.1884541534
1.1954340912
1.1923807216
1.2431394180
1.1943905050
1.2470648256
1.2288686773
1.1959541929
1.2419301651
1.2458066674
1.2432559292
1.1996726155
1.2169355067
1.2362333886
1.2425791763
1.1946517100
1.1919169739
1.2448210514
1.1921243677
1.2454523922
1.2136013195
1.1918358434
1.2210173147
1.2034920450
1.1923957797
1.2475087180
1.1974930714
1.2076330850
1.2485069506
1.2037817594
1.2457235999
1.2462188950
1.2102220940
1.1932070388
1.2437847278
1.2463908103
1.2036087331
1.1924215657
1.2483184335
1.2052475974
1.1920960230
1.2033830569
1.2496825386
1.2018478724
1.2023176953
1.1977929709
1.2464569316
1.2053933682
1.2464071334
1.1945332779
1.2026246523
1.2534361990
1.2374182409
1.2481036083
1.2018206257
1.2220527573
1.2037882335
1.2470100924
1.2513323594
1.2547178772
1.2436027586
1.2017099475
1.2299899089
1.2529112501
1.2082219826
1.2508788438
1.2037958031
1.2149358191
1.2145042078
1.2149856636
1.2079827950
1.2037101464
1.2120584558
1.2121821854
1.2058025452
1.2138537810
1.1983977415
1.2153038925
1.2101264653
1.2005540219
1.2067887882
1.2138497499
1.2022276702
1.2343286499
1.2519105541
1.2181064724
1.2015519628
1.2473700040
1.2554301433
1.2179749851
1.2461272037
1.2337001947
1.2542785090
1.2055067012
1.2415817225
1.2541631804
1.2262317602
1.2051220957
1.2528885754
1.2015825220
1.2009301718
1.2568930713
1.2258488089
1.2406428722
1.2547084903
1.2168815410
1.2108383359
1.2109033095
1.2159508185
1.2193987332
1.2102681952
1.2098732113
1.2100441361
1.2053923620
1.2030419033
1.2203163104
1.2183026770
1.2109441988
1.2162291849
1.2144297439
1.2160916156
1.2079131450
1.2135880733
1.2179135494
1.2202183102
1.2078977506
1.2147945599
1.2063731579
1.2066586786
1.2133565182
1.2196878951
1.2169187873
1.2124260442
1.2295438191
1.2557358413
1.2563955927
1.2297880115
1.2003102063
1.2449503505
1.2444678713
1.2125792904
1.1989397035
1.2135786576
1.2378512315
1.2541667974
1.2568850421
1.2580870733
1.2377122303
1.2023739182
1.1995191289
1.2010504467
1.2208053577
1.2008529686
1.2214438939
1.2534457761
1.2140228632
1.2184215718
1.2198642781
1.2093985322
1.2071387793
1.2242292862
1.2214984345
1.2057600648
1.2217894567
1.2168503110
1.2070346050
1.2237928983
1.2135381867
1.2253953185
1.2165314350
1.2171822449
1.2161601632
1.2220790371
1.2132980693
1.2202646405
1.2220119056
1.2208118505
1.2200293899
1.2130387041
1.2103098885
1.2249224549
1.2105442339
1.2251765717
1.2241194781
1.2357955012
1.2052919713
1.1953831414
1.2076461399
1.2559906193
1.1978692804
1.2406120889
1.2227942085
1.2410023214
1.2559520392
1.2404434436
1.2298485138
1.1981479916
1.2388101734
1.2329780125
1.2525865294
1.2423465766
1.2134418267
1.2375951742
1.1959315509
1.2153247727
1.2429094457
1.2405514057
1.2412305525
1.2580803166
1.1983152715
1.2005203936
1.2321598859
1.2216487774
1.2310684946
1.2352946826
1.2579257939
1.2414934051
1.2447683640
1.2525766256
1.2236249790
1.2259902021
1.2281353797
1.2230366156
1.2354717860
1.2297177076
1.2174973248
1.2093280502
1.2269859488
1.2163246228
1.1991613486
1.2301716410
1.2017986158
1.2170253248
1.2225037126
1.2239012090
1.1673425452
1.2200135043
1.2132460065
1.2245260926
1.2168749339
1.2264217276
1.2294477377
1.2287717000
1.1946048780
1.1819551234
1.1888957077
1.2210040166
1.2264379570
1.1764344914
1.2268250444
1.2030128360
1.2201058934
1.2302742400
1.2135087554
1.2200021278
1.1687114272
1.2262740540
1.2261403437
1.2357528502
1.2349422927
1.2164624961
1.2396104265
1.2363693064
1.2000975094
1.2399053646
1.2251132823
1.2276767547
1.2161896856
1.2355374739
1.2407440861
1.2429528827
1.2330339240
1.2326807902
1.2546717598
1.2445089204
1.1953484573
1.2328602423
1.2454879056
1.2428668004
1.2446371883
1.2397555864
1.2372766088
1.2518445206
1.2363313646
1.2346318884
1.2336804806
1.2400548162
1.2494179208
1.2262343573
1.2501627641
1.2410536136
1.2073411562
1.2283075356
1.2466428018
1.2346493746
1.2481928063
1.2467531101
1.2298760839
1.2579202047
1.2211841937
1.1935276663
1.2161941354
1.2500384587
1.2484298417
1.2441332765
1.2502951004
1.2499728995
1.2004400613
1.2068054519
1.2232903210
1.1952766337
1.2303750240
1.2309219416
1.2208529920
1.2036714460
1.2279523678
1.2291156884
1.1911103555
1.2318226711
1.1887607370
1.2123318914
1.2266623403
1.2543219542
1.1652554505
1.2515006226
1.2301600432
1.2200189665
1.2016135669
1.2173809591
1.2266573224
1.2574387267
1.2549050286
1.2316210410
1.2078603837
1.2287839828
1.1828263232
1.2481151298
1.2169993011
1.2567490839
1.2453949985
1.2287647953
1.1721955768
1.1976357384
1.2574683171
1.2313968316
1.2088986667
1.2561573095
1.2546057853
1.1631849562
1.1819560947
1.1888978738
1.1879572962
1.2240342588
1.2560565736
1.2114126084
1.2524518513
1.2078656298
1.1936070915
1.2527356221
1.1911116103
1.2398803612
1.2514950286
1.2503742006
1.2372321052
1.2496475850
1.1861616816
1.1936112753
1.2423169512
1.2446519046
1.2387915294
1.2030782758
1.2515845350
1.2039650660
1.2482017226
1.2305802030
1.1902742432
1.2476201908
1.2068049395
1.2456002100
1.2255817575
1.2279472999
1.2042231254
1.2453883451
1.1976365173
1.2560520996
1.2305835036
1.2016198908
1.1891158949
1.1643209635
1.2540889970
1.1638200201
1.1931692480
1.2177044552
1.1887632042
1.1747426833
1.1735201751
1.2494874856
1.1605179134
1.2143837518
1.2281840137
1.2436119508
1.2364767408
1.1995051087
1.1850059435
1.2484752618
1.2480375882
1.1844865463
1.1969964328
1.2484348769
1.2173782642
1.2175884752
1.2363339127
1.1879589041
1.2309252197
1.2541350129
1.2298928021
1.1830623489
1.2501559525
1.2541791249
1.2516315499
1.2251241207
1.2435117211
1.2163531447
1.2453688646
1.2527382847
1.1814523317
1.1814508353
1.2346470373
1.2561596205
1.1925852221
1.2499766126
1.2150817215
1.2346455186
1.2357517219
1.2283155773
1.1688768638
1.2326977224
1.2123533597
1.1678596663
1.2220800752
1.1626707069
1.2211954639
1.1911014404
1.2491913756
1.2560368142
1.1748062453
1.2185488021
1.1762275308
1.2547431691
1.1908075223
1.2330330484
1.1621797962
1.1900592253
1.2566150807
1.2363758198
1.1769280085
1.1766328620
1.2265355322
1.2563918756
1.1774886546
1.2453701942
1.2026504794
1.2554533671
1.2255781047
1.1830640093
1.1902783558
1.2030772382
1.2481209620
1.2426867160
1.2361017138
1.2496431223
1.1762269780
1.1708207493
1.2606152148
1.2436067502
1.1607565916
1.1900595815
1.1655237476
1.1641599423
1.1995104263
1.1861624665
1.1844893378
1.2143815312
1.2596134593
1.2608554329
1.2579919001
1.2532371755
1.2540855712
1.1811746970
1.2031497885
1.1849719027
1.2552314688
1.2559936460
1.2281859612
1.1665843561
1.2566590305
1.1643949570
1.1759371347
1.2391481548
1.2069618173
1.1631497746
1.1767163879
1.1972041053
1.1931691954
1.2587348474
1.1833744157
1.2463411087
1.2193157320
1.2569483280
1.2602141872
1.2609279168
1.2574833405
1.1713796212
1.1735043597
1.2301827108
1.1943338328
1.2596523629
1.2604557144
1.2042252468
1.1718466467
1.1976498927
1.1620541930
1.2603748555
1.1609291275
1.1587502259
1.2638183922
1.2628846496
1.1679063327
1.1635213709
1.2613471699
1.1617177623
1.1631485210
1.1611391571
1.2624123843
1.2631268071
1.2630333654
1.1599614169
1.1651094427
1.1648677175
1.1708501142
1.1646964969
1.2620449033
1.2631157618
1.2587182694
1.2606251452
1.1658773283
1.2639460979
1.2646604941
1.1753292859
1.2608528740
1.2595395931
1.1769224755
1.2652664417
1.1605161157
1.2624381405
1.1831606392
1.1713041764
1.2652719434
1.1774846907
1.2641299511
1.2623710416
1.1969938840
1.2607873731
1.1969997526
1.1919317646
1.2597547936
1.2594022920
1.2232829404
1.2121734644
1.2096427733
1.2096809954
1.2122263004
1.2094969575
1.2053989092
1.2169684227
1.2163548969
1.2043484983
1.2044823599
1.2020423887
1.2043806741
1.2117971011
1.2211749297
1.2080674625
1.2258680978
1.2163818362
1.2095136919
1.2261286515
1.2301230990
1.2124487152
1.2023598233
1.2196438728
1.2256706162
1.2320763264
1.2047269723
1.2207741043
1.2385107182
1.2125920142
1.2307198767
1.2271759749
1.2243442101
1.1993302338
1.2309241292
1.2167146028
1.2258837730
1.2211079166
1.2261605324
1.2013078036
1.2264902746
1.2093502486
1.2230192438
1.1966998952
1.2015491144
1.2083656934
1.2343401650
1.2162200638
1.2004057097
1.2047316035
1.2320924912
1.2023566940
1.2213844654
1.2169929509
1.1993383136
1.2119289508
1.1905096333
1.2242728508
1.1939188358
1.2272180981
1.1980748325
1.2167854981
1.2193174007
1.1976262541
1.1898825668
1.2309471952
1.1964596461
1.1955437181
1.2091164592
1.1992811520
1.1981562069
1.2047505240
1.1982785253
1.2038499512
1.2185274830
1.1920135500
1.2343587201
1.2015708741
1.1947522961
1.1900266345
1.2230642287
1.2026912711
1.1905146631
1.2069035283
1.2007799946
1.2193861446
1.1939243731
1.1934715413
1.1976412667
1.1984112677
1.2027873038
1.2116940299
1.1911555324
1.1900525385
1.2017575313
1.2026225155
1.1963600216
1.1930656880
1.1972680962
1.1947623785
1.1897400243
1.1908816194
1.2050354171
1.1958991236
1.1939831962
1.1930943136
1.2111499570
1.1878144520
1.2057185685
1.2051880020
1.1920188352
1.1878755682
1.1900297298
1.1962933479
1.1892795699
1.1893015549
1.1944301610
1.1927138383
1.2038867788
1.2089999967
1.1883136854
1.1913210247
1.2343692259
1.1877524981
1.1934804490
1.1911617163
1.1992221691
1.1963725379
1.2015331949
1.1923740346
1.2073616448
1.2048873201
1.1993342155
1.2008063655
1.1999596188
1.1978684693
1.2031540253
1.1955740288
1.2069364897
1.2056558524
1.1879613250
1.1874016772
1.2090610996
1.1888353617
1.1944470677
1.1904915711
1.1915455668
1.1939931860
1.2018638420
1.2087081715
1.1897451476
1.1913243344
1.1934872704
1.1948218380
1.1892470417
1.1878168797
1.1878795931
1.2153026737
1.1966652207
1.1914459412
1.2057494117
1.1955566406
1.1908890312
1.1928090255
1.2005892168
1.1883301458
1.2052356681
1.1897168376
1.2015583519
1.1883596200
1.1995564477
1.1955807057
1.2043165717
1.1923809353
1.1884034986
1.2076111631
1.1909518868
1.2021329897
1.1980425039
1.2078150497
1.2060318310
1.1884585906
1.2016669193
1.1877399889
1.1998602597
1.1943102680
1.2073928780
1.1906395198
1.2064457154
1.1992257807
1.2057435120
1.1966709159
1.1916531627
1.2093079833
1.1888400064
1.1914568661
1.1928207673
1.1934943312
1.2012212350
1.2119942550
1.1915534711
1.1902698512
1.2087475154
1.1916480028
1.2018604060
1.2101598811
1.1993100179
1.1892521798
1.1909584511
1.2057642957
1.1968490665
1.1877435359
1.2006928815
1.2027527530
1.1949586734
1.1884611569
1.2387965677
1.1943174960
1.2021507222
1.2024693437
1.2006951159
1.1895610258
1.2085457038
1.1884939125
1.1988402131
1.1881769786
1.2076356830
1.2378042292
1.2036139115
1.2043324700
1.1916535667
1.2021765970
1.2104119245
1.2416364680
1.2035897609
1.1935616400
1.1950572559
1.1932336099
1.2003705009
1.2115402739
1.1984417027
1.2103720240
1.1931685576
1.2004802909
1.1874812987
1.1962801860
1.1980775008
1.2120306157
1.1970996271
1.2000859475
1.2018984873
1.2118950006
1.1968597219
1.2387934829
1.1949743462
1.1996246091
1.2335248782
1.1955965493
1.1972361743
1.2398805812
1.2039457126
1.2017889173
1.2100652302
1.2359120984
1.1979905050
1.2416290096
1.1984542143
1.1968862495
1.2059802304
1.2412622450
1.1874835651
1.1950696760
1.1995620771
1.2393913309
1.2104468689
1.1930785443
1.2406566640
1.1946405433
1.1935750774
1.1918130227
1.2004988313
1.2029231433
1.2371083407
1.2016283707
1.2110758075
1.1917480038
1.2019160866
1.1996455946
1.2472705703
1.1913731622
1.2043630664
1.1894579365
1.1989105732
1.2119237584
1.1910331031
1.2347282330
1.1906045110
1.1979727723
1.2300452773
1.2462253188
1.1922070096
1.1884507746
1.2412550551
1.2406478695
1.2362321993
1.2432670970
1.1980134838
1.1942550441
1.2371014036
1.2432174378
1.1981647225
1.2087410702
1.2100896079
1.2390109784
1.1917256372
1.2288488435
1.2404050636
1.2022219804
1.1936578545
1.2292193682
1.2419400790
1.1904472960
1.1959490334
1.2418707195
1.1943862404
1.1894609782
1.2442491750
1.1910144984
1.1932455246
1.2085568271
1.2043862251
1.1940399262
1.1926113195
1.1921205539
1.2257863498
1.2451516311
1.1892220233
1.2300466687
1.2110912591
1.2472529387
1.1917516042
1.2016164806
1.1906078065
1.1946458117
1.1901387526
1.1913768983
1.1919130241
1.2454660953
1.1962161005
1.2485188143
1.2065462939
1.2403962732
1.2432060177
1.2023978797
1.1930418506
1.1932569047
1.2247554078
1.1979577104
1.2392353559
1.2475219486
1.1981717699
1.2292187560
1.2087450798
1.2492733309
1.2449873523
1.1974842445
1.1904507495
1.2209847163
1.1893576532
1.2324708662
1.1942586673
1.2462637292
1.2437953787
1.1954387697
1.1923845918
1.2451337814
1.2071010727
1.1932493993
1.2333666585
1.2257852871
1.2085603010
1.2457343654
1.1940438585
1.1918427530
1.2431261504
1.1901421290
1.2101911361
1.2050998563
1.1920907491
1.2169764836
1.2462518684
1.2024137548
1.2033711762
1.2492607494
1.1932608186
1.1893609376
1.1999764766
1.2463511336
1.1930453253
1.2065418934
1.2449671702
1.1924162276
1.1902235034
1.2457932425
1.1996835103
1.2052342753
1.2008696297
1.2470529936
1.2054104352
1.1931897635
1.2448101020
1.2464188833
1.2136329353
1.1945280800
1.2070922064
1.2425695571
1.2464686648
1.2333614332
1.2023195466
1.1940769873
1.1924009339
1.2478248262
1.2463396053
1.2449556131
1.2470218319
1.2008751731
1.1999871094
1.2508129893
1.2061523775
1.2076515284
1.1902269990
1.1918410918
1.2050867309
1.2489124284
1.2479524194
1.2035032305
1.2513452737
1.2018297248
1.2036121873
1.1983934005
1.1931950906
1.2463792476
1.1940825220
1.1961436750
1.1960615605
1.2037671482
1.2462072263
1.1932122891
1.2038081891
1.2542892137
1.2336991199
1.2494405473
1.2461428891
1.2018425104
1.2479409381
1.2023260370
1.2494705982
1.2179548744
1.2511690370
1.2478095302
1.2022282001
1.2483066721
1.2504052039
1.2061725713
1.2496682598
1.2532515769
1.2406526217
1.2502202490
1.2015865581
1.2258349710
1.2529014342
1.2054992637
1.2489012284
1.2519210609
1.2508009415
1.2007538977
1.2035635180
1.2026172109
1.1961499261
1.2168816701
1.2109275223
1.1960668614
1.2160753389
1.2079139247
1.2066496477
1.2147544368
1.2096474139
1.2124351718
1.2054019795
1.2161876141
1.1977982603
1.2168528583
1.2102850334
1.2030381169
1.2126083134
1.2098529730
1.2144271947
1.2037926583
1.2297880685
1.2515312703
1.2508673369
1.2135673408
1.2003106271
1.2511541347
1.2023204772
1.2494248263
1.2520422935
1.2026520028
1.2444823744
1.2557456400
1.2494587918
1.2220766444
1.2480887238
1.2374176031
1.2534252563
1.2082376899
1.2377212597
1.2534581738
1.2503943655
1.2214355506
1.2023710429
1.2528988241
1.2017066497
1.2010510303
1.2497446315
1.2557623610
1.2300036292
1.2502048948
1.2435928248
1.2532416595
1.2153419411
1.2070263625
1.2045320747
1.2105532012
1.2161761162
1.2202620806
1.2101121855
1.2126405313
1.2067977953
1.2132812559
1.2057906191
1.2005592254
1.2161663826
1.2219863724
1.2207739037
1.2145284929
1.2007603850
1.2138978960
1.2138566873
1.2150110617
1.2071387124
1.2135540011
1.2184304813
1.2214835958
1.2079653337
1.2120939783
1.2096700279
1.2093924774
1.2035600881
1.2037120662
1.2165028373
1.2217558856
1.2190192510
1.2149806867
1.2121751369
1.2241202971
1.2504075150
1.2554200550
1.2520308236
1.2559993492
1.2343270458
1.2015533425
1.2030033710
1.2410145020
1.2026519052
1.2473555506
1.2076404768
1.1978676958
1.2181208701
1.2515168035
1.2329854298
1.2525979237
1.2557537342
1.2574828096
1.2415715524
1.2051296640
1.2005156974
1.2476230102
1.2009286154
1.2497297210
1.2153204411
1.1983133148
1.2262402227
1.2541508856
1.2135048059
1.2179078970
1.2200133097
1.2063787530
1.2079085109
1.2264111708
1.2202434370
1.2017947024
1.2197296826
1.2190558561
1.2225141280
1.2200835998
1.2059015369
1.2108518630
1.2245327238
1.2135701550
1.2268135020
1.2133751090
1.2170300573
1.2159357025
1.2225156189
1.2100507064
1.2045368519
1.2251070929
1.2194085174
1.2203524862
1.2183432129
1.2230080016
1.2163134297
1.2093175671
1.2259881230
1.2108899472
1.2269657837
1.2161984306
1.2396014788
1.2328520041
1.2038445151
1.2399050086
1.2295414988
1.2503938461
1.2381149423
1.2431619922
1.2000950814
1.2343401596
1.1953445072
1.2125870135
1.2420223949
1.2407403390
1.2409513614
1.2563865974
1.1989412472
1.2030114376
1.2355461295
1.2164634281
1.2449370519
1.2261322631
1.2273834690
1.2372735811
1.2546790827
1.2390671240
1.2434048192
1.2474991076
1.2387558929
1.2296032768
1.2004327295
1.2379887517
1.2378420268
1.2541552314
1.2358842830
1.2440502337
1.2073393158
1.2369619508
1.1935254562
1.2208097883
1.2438681037
1.2393523806
1.2387802648
1.2574756791
1.2008565925
1.1995212154
1.2435975100
1.2262393811
1.2476097508
1.2216224345
1.2316739056
1.2347726174
1.2580114472
1.2407447969
1.2434974029
1.2499822181
1.1685836274
1.2266357722
1.2080771471
1.2249327420
1.2103546167
1.2284494943
1.2287905869
1.2200539484
1.2301664008
1.2258594081
1.1898892829
1.2316064206
1.1828271133
1.1812312435
1.2169870298
1.2251371665
1.2103154527
1.1824195359
1.2252057561
1.2098847809
1.2130455738
1.1952744098
1.2313950494
1.2057667889
1.2171713728
1.2220679037
1.1629394006
1.2240336768
1.1631857118
1.2232746732
1.2123183083
1.2237911128
1.2185455060
1.2290940456
1.2303788536
1.2225456242
1.2384452847
1.2335299341
1.1903520735
1.2307233278
1.1777743763
1.1883904095
1.2208454134
1.2242622317
1.2059131284
1.1748050056
1.2254166039
1.2036687008
1.2168647325
1.2318142585
1.2140201594
1.2198499021
1.1652549966
1.2266674484
1.2260504499
1.2506069579
1.2346668653
1.2338673862
1.2372274824
1.2343477461
1.2423115341
1.2472431595
1.2227921311
1.2376245486
1.2494649107
1.2347383396
1.2376141463
1.2378474043
1.2052952077
1.2389069805
1.2251354529
1.2273892574
1.2324618638
1.2167180347
1.2436151427
1.2406017267
1.2393206701
1.2409616586
1.2324058752
1.2484713111
1.2389057939
1.2476170373
1.2300062255
1.2559444081
1.2169737499
1.2434079175
1.1953860879
1.2216552030
1.2276720642
1.2494804899
1.2480314841
1.2324680723
1.2455958049
1.2472161384
1.2420246524
1.2431684589
1.2507024798
1.2474877154
1.2038575115
1.2390724568
1.2366116290
1.2429435153
1.2298581059
1.2507935543
1.2349886650
1.2445064025
1.2323112377
1.2328492546
1.2310753118
1.2391341627
1.2484992039
1.2321530848
1.2381274845
1.2510888940
1.2358269028
1.2420090228
1.2134435918
1.2405534635
1.2280950189
1.2225327592
1.2225283195
1.2456361578
1.2435873520
1.2404507836
1.2423547456
1.2338004326
1.2471597548
1.2458721604
1.2268191525
1.2580057880
1.2214792981
1.2397496805
1.2429117250
1.1959339501
1.2167236938
1.2481130690
1.2471315367
1.2353010739
1.2432830183
1.2459242575
1.2407481695
1.2435019407
1.2515897195
1.2525665893
1.1981546061
1.2369684913
1.2388112309
1.2139208210
1.2200227682
1.2563884879
1.2547383660
1.2307425598
1.1991642243
1.2200119127
1.2294489325
1.1777752024
1.2501540183
1.2305018377
1.2210048043
1.2030157779
1.2560318099
1.2425794964
1.2258521794
1.2341688158
1.2264443050
1.1640657387
1.1963074942
1.2566550027
1.2302895651
1.2038440202
1.2545545763
1.2548520045
1.1685845349
1.1946043905
1.1954058619
1.1954085254
1.1898655518
1.2132575657
1.2262663857
1.2529831661
1.1687124759
1.1956287184
1.2537754234
1.2354666829
1.2163446521
1.2496618246
1.2159963801
1.1960906960
1.1975239171
1.2197895311
1.2535630211
1.2243330251
1.2236440566
1.2566114017
1.2538820068
1.2297378814
1.2153360526
1.2281303257
1.1903525244
1.2472685370
1.2175045977
1.1956308797
1.2552260193
1.2491101517
1.2335232373
1.2374991679
1.2284722715
1.1678591454
1.2041252837
1.2564861785
1.2301802205
1.2159893211
1.2553921814
1.2537045797
1.1673421560
1.1898888633
1.1883922765
1.1707211338
1.1912930913
1.2080891856
1.2238958877
1.2536327372
1.1629389283
1.2569779989
1.2384401271
1.2025315186
1.2065625185
1.2518359066
1.2267747514
1.2038469317
1.1919058907
1.2518329368
1.2126572311
1.2425715589
1.1963085561
1.2378505267
1.2537693923
1.2494682538
1.2336843912
1.2065718968
1.1828352833
1.2363016478
1.1669883068
1.2463204091
1.1613764880
1.2465538704
1.1816538072
1.2414398286
1.2152128223
1.1919101311
1.1813618773
1.2414458194
1.2347767536
1.2436191476
1.1682358684
1.2393151909
1.2358991477
1.2398778843
1.2216306667
1.2465606157
1.1606045040
1.1954820231
1.2506106051
1.2393564491
1.2358781379
1.2085632818
1.2260413340
1.2355531708
1.2472472006
1.2414982493
1.2283697720
1.2304341243
1.2446316599
1.2105179217
1.1873421579
1.2358109066
1.2518628038
1.2316798210
1.2466743371
1.2510023393
1.1937752619
1.1926618627
1.2466771273
1.2473235170
1.2139194831
1.2112769649
1.2447508611
1.2183083871
1.2341622845
1.2447718436
1.2063494891
1.2491025310
1.2041257235
1.2331881230
1.2569736250
1.2485028851
1.2283736268
1.2481981708
1.1975307772
1.1904419587
1.2400599952
1.1625608103
1.2522293039
1.1635225680
1.1867324325
1.2118866081
1.1898677248
1.1752585359
1.2349357874
1.2441384301
1.2410572407
1.1713103573
1.2412407612
1.2515808558
1.2472236021
1.1589895697
1.2065669287
1.2501660931
1.2301723116
1.2054876628
1.2387608442
1.2456403597
1.2509960459
1.2331855013
1.2375024998
1.2051538533
1.1831675351
1.2507978389
1.2503011248
1.1854380318
1.1944304309
1.2481961299
1.2507075863
1.2243290727
1.2199271317
1.2467567333
1.2293243193
1.2374925604
1.2349951211
1.1912946131