<VTKFile type="UnstructuredGrid" version="0.1">
	<UnstructuredGrid>
		<Piece NumberOfPoints="1862" NumberOfCells="3498">
			<CellData>
				<DataArray type="Int32" Name="type" NumberOfComponents="1" Format="ascii">
0
0
0
0
0
0
0
0
0
0
0
0
0
0
0
0
1
0
0
1
0
0
0
0
0
0
0
0
0
0
0
0
0
1
0
0
0
0
0
0
0
0
0
0
0
0
0
0
0
0
1
0
0
0
0
0
0
0
0
0
0
1
0
0
0
0
0
0
0
0
0
0
0
0
0
0
0
0
0
0
0
0
0
0
0
0
0
0
0
0
0
0
0
0
0
0
0
0
0
0
0
0
0
0
0
0
0
0
0
0
0
0
0
0
0
0
0
0
0
0
0
0
0
1
0
0
0
0
0
0
0
0
0
0
0
0
0
0
0
0
0
0
0
0
0
0
0
0
0
0
0
1
0
1
1
0
0
0
0
0
0
0
0
0
0
0
0
0
1
0
1
0
0
0
0
1
0
0
0
0
0
0
0
0
1
1
0
0
0
0
0
1
0
0
0
0
0
0
0
0
1
0
0
0
0
0
0
0
0
0
0
0
0
0
0
0
0
0
0
0
0
0
0
0
0
0
0
0
0
0
0
0
0
1
0
0
0
0
0
0
0
0
0
0
0
0
0
0
0
0
0
0
0
0
0
0
0
0
0
0
0
0
0
0
0
0
0
0
0
0
0
0
0
0
0
0
0
0
0
0
0
1
0
0
0
0
0
0
0
0
0
0
0
0
0
0
0
0
0
0
0
0
0
0
0
0
0
0
0
0
0
0
0
0
0
0
0
0
0
0
0
0
0
0
0
0
0
0
0
0
0
0
1
0
0
0
0
0
0
0
0
0
0
0
0
0
0
0
0
0
0
0
0
0
0
0
0
0
0
0
0
0
0
0
0
0
0
0
0
0
0
0
0
0
0
0
0
0
0
0
0
0
0
0
0
0
0
0
0
0
1
0
0
0
0
0
0
0
0
0
0
0
0
0
0
0
0
0
0
0
0
0
0
0
0
0
0
0
0
0
0
0
0
0
0
0
0
0
0
0
0
0
0
0
0
0
0
0
0
0
0
0
0
0
0
0
0
0
0
0
0
0
0
0
0
0
0
0
0
0
0
0
0
0
0
0
0
0
0
0
0
0
0
0
0
0
0
0
0
0
0
0
0
0
0
0
0
0
0
0
0
0
0
0
0
0
0
0
0
0
0
0
0
0
0
0
0
0
0
0
0
0
0
0
0
0
0
0
0
0
0
0
0
1
0
0
0
0
0
0
0
0
0
0
0
0
0
0
0
0
0
0
0
1
0
0
0
0
0
0
0
0
0
0
0
0
0
0
0
0
0
0
0
0
0
0
0
0
0
0
0
0
0
0
0
0
0
0
0
0
0
0
0
0
0
0
0
0
0
0
0
0
0
0
0
0
0
1
0
0
0
0
0
0
0
0
0
0
0
0
0
0
0
0
0
0
0
0
0
0
0
1
0
0
0
0
0
0
0
0
0
0
0
0
0
0
0
0
0
0
0
1
0
0
0
1
0
0
0
0
0
0
0
0
0
0
0
0
0
0
0
0
0
0
0
0
0
0
0
0
0
1
0
0
0
0
0
0
0
1
0
0
0
0
0
0
0
0
0
0
0
0
0
0
0
0
0
0
0
0
0
0
0
0
0
0
1
0
0
0
0
0
0
0
1
0
0
0
0
0
0
1
0
0
0
0
0
0
0
0
0
0
0
0
0
0
0
0
0
0
0
0
0
0
0
0
0
0
0
0
0
0
0
0
0
0
0
0
0
0
1
0
0
0
0
0
1
0
0
0
0
0
0
0
1
0
0
0
0
0
0
0
0
0
0
0
0
0
1
0
0
0
0
0
0
0
0
0
0
0
0
0
0
0
0
0
0
0
0
0
0
0
0
0
0
0
0
0
0
0
0
0
0
0
0
0
0
0
0
0
0
0
0
0
0
0
0
0
0
0
0
0
1
0
0
0
0
0
0
0
0
0
0
0
0
0
0
0
0
0
0
0
1
0
0
0
0
0
0
0
0
0
1
0
0
0
0
0
0
0
0
0
0
0
0
0
0
0
0
0
0
0
0
0
0
0
0
0
0
0
0
0
1
0
1
0
0
0
0
0
0
0
0
0
0
0
0
0
0
0
0
0
0
0
0
0
0
0
0
0
0
0
1
0
0
0
1
0
0
0
0
0
0
0
0
0
0
0
0
0
0
0
0
0
0
0
0
0
0
0
0
0
0
0
0
1
0
0
0
0
0
0
0
0
0
0
0
0
0
0
0
0
0
0
0
0
0
0
0
0
0
1
0
0
0
0
0
0
0
0
0
0
0
0
0
0
0
0
0
0
0
0
0
0
0
1
0
0
0
0
0
0
1
0
0
0
0
0
0
0
0
0
0
0
1
0
0
0
0
0
0
0
0
0
0
0
0
0
0
0
0
0
0
0
0
1
0
0
0
0
0
0
0
0
0
0
0
1
0
0
0
0
0
0
0
0
0
0
0
0
0
0
0
0
0
0
0
0
0
1
0
0
0
0
0
0
0
0
0
1
1
0
1
0
1
0
0
0
0
0
0
0
0
0
0
0
1
0
0
0
0
0
1
1
0
0
0
0
0
0
1
0
0
0
0
0
1
1
1
0
0
0
0
0
0
0
0
0
0
0
0
1
1
0
0
1
0
0
0
0
0
1
0
0
0
1
0
1
0
0
0
0
0
0
0
1
0
0
0
0
0
0
0
1
0
0
1
0
0
0
0
0
0
0
0
0
0
0
0
0
0
0
1
0
0
0
0
0
0
0
0
0
0
0
0
0
0
0
0
0
0
0
0
0
0
0
0
0
0
0
0
0
0
0
0
0
0
0
0
1
0
0
0
0
0
0
1
0
0
0
1
0
0
0
0
0
0
0
0
0
0
0
1
0
0
0
0
0
0
0
0
0
0
0
0
0
0
0
0
0
0
0
0
0
0
0
0
0
0
0
0
0
0
0
0
0
0
0
0
0
0
0
0
1
1
0
0
0
0
0
0
0
0
0
0
0
0
0
1
0
0
0
0
0
0
0
0
0
0
0
0
0
0
0
0
0
0
0
0
0
0
0
0
0
0
0
0
0
0
0
0
0
0
0
0
0
0
0
0
0
0
0
0
0
0
0
0
0
0
0
0
0
0
0
0
0
0
0
0
0
0
0
0
0
0
0
0
0
0
0
0
1
1
0
0
0
0
0
0
0
0
1
0
0
0
0
0
0
0
0
0
0
0
0
0
0
0
0
0
0
0
0
0
0
0
1
0
0
0
0
0
0
0
0
0
0
0
0
0
0
0
0
1
0
0
0
0
0
0
0
0
0
0
0
0
0
0
0
0
0
0
0
0
0
0
0
0
0
0
0
0
0
0
0
0
0
0
0
0
0
0
0
0
0
0
0
0
0
0
0
0
0
0
0
0
0
0
0
0
0
0
0
0
0
0
0
0
0
0
0
0
0
0
0
0
0
0
0
0
0
0
0
0
0
0
0
0
0
0
0
0
0
0
1
1
0
0
0
0
0
1
0
0
0
0
0
0
0
0
0
0
0
0
1
0
0
0
0
0
0
0
0
0
0
0
0
0
0
0
0
0
0
0
0
0
0
0
0
0
0
0
0
0
0
0
0
0
0
0
0
0
0
0
0
0
0
0
0
0
0
0
0
0
0
0
0
0
1
0
1
0
0
0
0
0
0
0
0
0
0
0
0
0
0
0
0
0
0
1
0
0
0
0
0
0
0
0
0
0
0
0
0
0
0
0
0
0
0
0
0
0
0
0
0
0
0
0
0
0
0
0
0
0
0
0
0
0
0
0
0
0
0
0
0
0
0
0
0
0
0
0
0
0
0
0
0
0
0
0
0
0
0
0
0
0
0
0
0
0
1
0
0
0
0
0
0
0
0
0
0
1
0
0
0
0
0
0
0
0
0
0
0
0
0
0
0
0
0
0
0
0
0
0
0
0
0
0
0
0
0
0
0
0
0
0
0
0
0
1
0
0
0
0
0
0
0
0
0
0
0
0
0
0
0
0
0
0
0
0
0
0
0
0
0
0
0
0
0
0
0
0
0
0
0
0
0
0
0
0
0
0
0
0
0
0
0
0
0
0
0
0
0
0
0
0
0
0
0
0
0
0
0
0
0
0
0
0
0
0
0
0
0
0
0
0
0
0
0
0
0
1
0
0
0
0
0
0
0
0
0
0
0
0
0
0
0
0
0
0
0
0
0
0
0
0
0
0
0
0
0
0
0
0
0
0
0
0
0
0
0
0
0
0
0
0
0
0
0
0
0
0
0
0
0
0
0
0
0
0
0
0
0
0
0
0
0
0
0
0
0
0
0
0
0
0
0
0
0
0
0
0
0
0
0
0
0
0
0
0
0
0
0
0
0
0
0
0
0
0
0
0
0
0
0
0
0
0
0
0
0
0
0
0
0
0
0
0
0
0
0
0
0
0
0
1
0
0
0
0
0
0
0
0
0
0
0
0
0
0
0
0
0
0
0
0
0
0
0
0
0
0
0
0
0
0
0
0
0
0
0
0
0
0
0
0
0
0
0
0
0
0
0
0
0
0
0
0
0
0
0
0
0
0
0
0
0
0
0
0
0
0
0
0
0
0
0
0
0
0
0
0
0
0
0
0
0
1
0
0
0
0
0
0
0
1
0
0
0
0
0
0
0
0
0
0
0
0
0
0
0
0
0
0
0
0
0
0
0
0
0
0
0
0
0
0
0
0
0
0
0
0
0
1
0
0
0
0
0
0
0
0
0
0
0
0
0
0
0
0
0
0
0
0
0
1
0
0
0
0
0
0
0
0
0
0
0
0
1
1
0
0
0
0
0
0
0
0
0
0
0
0
0
0
0
1
1
0
1
0
0
0
0
0
0
0
0
0
1
0
0
0
0
0
0
1
0
0
0
0
0
0
0
0
0
0
1
0
0
0
0
1
0
1
0
0
0
0
0
0
0
1
0
0
0
1
0
0
0
1
0
1
1
0
0
1
1
0
0
0
1
0
0
0
1
0
0
0
0
0
0
0
0
0
1
0
0
0
0
0
0
1
0
0
0
0
0
0
0
0
0
0
0
0
0
0
0
0
0
0
0
0
0
0
0
0
0
0
0
1
0
0
1
0
0
0
0
0
0
0
0
0
0
0
0
0
0
0
0
0
0
1
0
0
1
0
0
0
0
0
0
0
0
0
0
0
1
0
0
1
0
0
0
0
0
0
0
0
0
0
0
1
1
0
0
0
0
0
0
0
0
0
0
0
0
1
0
0
0
0
0
0
0
0
0
0
0
0
0
0
0
0
0
1
0
0
0
0
0
0
0
0
0
0
0
0
0
0
0
0
0
1
0
0
0
0
0
0
0
0
0
0
0
0
0
0
0
0
0
0
0
0
0
0
0
0
0
0
0
0
0
0
0
0
0
0
0
0
0
0
0
0
1
0
0
0
0
0
0
0
0
0
0
0
0
0
0
0
0
0
0
0
0
0
0
0
0
0
0
0
0
0
0
0
0
0
0
0
0
0
0
0
0
0
0
0
0
0
1
0
0
0
0
0
0
0
0
0
0
0
0
0
0
0
0
0
0
0
0
0
0
0
0
0
0
0
0
0
0
0
0
0
0
0
0
0
0
0
0
0
0
0
0
0
0
0
1
0
0
0
0
0
0
0
0
0
0
1
0
0
0
0
0
0
0
0
0
0
0
0
0
0
0
1
0
0
1
0
0
0
0
0
0
0
0
0
0
0
0
0
0
0
0
0
0
0
0
0
0
0
1
0
0
0
0
0
0
0
0
0
0
0
0
0
0
0
0
0
0
0
0
0
0
0
0
0
0
0
0
0
0
0
0
0
0
0
1
0
0
0
0
0
0
0
0
0
0
0
0
0
0
0
0
0
0
0
0
0
0
0
0
0
0
0
0
0
0
0
0
0
0
0
0
0
0
0
0
0
0
0
0
0
0
0
0
0
0
0
0
0
0
0
0
0
0
0
0
0
0
0
0
0
0
0
0
0
0
0
0
0
0
0
0
1
0
0
0
0
0
0
0
0
0
0
0
0
0
0
0
0
0
0
0
0
0
0
0
0
0
0
0
0
0
0
0
0
0
0
0
0
0
0
0
1
0
0
0
0
0
0
0
0
0
0
0
0
1
1
0
0
0
0
0
0
0
0
0
0
0
0
0
0
0
0
0
0
0
0
0
0
0
0
0
0
0
0
0
0
0
0
0
0
0
0
0
0
0
0
0
0
0
0
0
0
0
0
0
0
0
0
0
0
0
0
0
0
0
0
0
0
0
0
0
0
0
0
0
0
0
0
0
0
0
0
0
0
0
0
0
0
0
0
0
0
0
0
0
0
0
0
0
0
0
0
0
0
0
0
0
1
0
1
0
0
0
0
0
0
0
1
1
1
1
0
0
0
0
0
0
0
0
0
0
0
0
0
0
0
0
0
0
0
0
0
0
0
0
0
0
0
0
1
1
0
0
0
0
0
0
0
0
0
0
0
0
0
0
0
0
0
0
1
0
0
0
0
0
0
0
1
1
0
1
1
0
0
1
0
0
0
0
0
0
0
1
0
1
0
0
0
0
0
0
0
0
0
0
0
0
0
0
0
0
0
0
0
0
0
0
0
0
0
0
0
1
1
0
0
0
1
1
0
0
0
0
1
0
0
1
0
1
0
0
0
0
0
1
0
0
0
1
0
0
0
0
0
0
0
0
0
0
0
0
0
0
0
0
0
0
0
0
0
0
0
0
0
0
0
1
0
0
0
0
0
0
1
0
0
0
0
0
0
0
0
0
0
0
0
0
0
0
0
0
0
0
0
0
0
0
0
0
0
0
0
0
1
0
1
0
0
0
0
0
0
0
1
0
0
0
0
0
0
0
0
0
0
0
1
0
0
0
0
0
0
0
0
0
1
0
0
0
0
0
0
0
1
0
0
0
0
0
0
0
1
0
0
0
0
0
0
0
0
0
0
0
0
0
0
0
0
0
0
0
1
0
1
0
0
0
0
0
1
0
0
0
0
0
0
0
0
0
0
0
0
0
0
0
0
0
0
0
0
0
0
0
0
0
1
0
1
0
0
0
0
0
0
0
0
0
1
0
0
0
0
0
1
0
0
0
0
0
0
0
0
0
0
0
0
0
0
0
1
0
0
0
0
0
0
0
0
1
0
0
0
0
0
0
0
0
0
0
0
0
0
0
0
0
0
0
0
0
0
0
0
0
0
0
0
0
0
0
1
0
0
0
0
0
0
0
0
0
0
0
0
0
0
0
0
1
0
0
0
0
0
0
0
0
1
0
0
0
0
0
0
0
0
0
1
0
0
0
0
0
1
0
0
0
0
0
0
0
0
0
0
0
0
0
0
0
0
0
0
0
1
0
0
0
0
0
0
1
0
0
0
0
0
0
0
0
1
0
0
0
0
0
0
0
0
0
0
0
0
0
0
1
0
0
1
0
0
0
1
0
0
0
0
0
0
0
0
0
0
0
0
0
0
0
0
1
0
0
0
0
0
0
0
0
0
0
1
0
1
0
0
0
0
0
0
1
0
0
0
0
0
0
0
0
0
0
0
0
0
0
0
0
0
0
0
0
0
0
0
0
0
0
0
1
1
0
0
0
0
0
0
1
0
0
0
0
0
0
0
0
0
0
0
0
0
1
0
0
0
0
0
0
0
1
0
0
0
0
0
0
0
0
0
0
0
0
0
0
0
0
0
0
0
0
0
0
0
0
0
0
0
1
0
0
0
0
0
0
0
0
0
0
1
0
0
1
0
0
0
0
0
0
0
0
0
0
0
0
0
0
0
0
0
0
0
0
0
0
0
0
0
0
0
0
0
1
0
0
0
0
0
0
0
1
0
0
0
0
0
0
0
1
0
0
0
0
1
0
0
0
0
0
0
0
0
0
0
0
1
0
1
0
0
0
1
0
				</DataArray>
				<DataArray type="Float64" Name="h" NumberOfComponents="1" Format="ascii">
1.1613904789
1.1613898869
1.1621495060
1.1620372968
1.1618913481
1.1622389835
1.1619365948
1.1616941489
1.1620331592
1.1617153191
1.1620313080
1.1622417704
1.1608360147
1.1620645750
1.1615130441
1.1603540567
1.1620737845
1.1613704849
1.1609760401
1.1619507958
1.1624579319
1.1600839832
1.1605073054
1.1621781382
1.1620946823
1.1608725127
1.1589230047
1.1594650853
1.1610968597
1.1619219773
1.1619705821
1.1609167050
1.1597085183
1.1625072956
1.1630561912
1.1616899042
1.1628017429
1.1594448203
1.1585920873
1.1623367890
1.1614182274
1.1608926662
1.1594112682
1.1601374447
1.1619817976
1.1598524814
1.1599337966
1.1634318205
1.1630180268
1.1620278571
1.1628871041
1.1609370553
1.1606137152
1.1616716180
1.1617560371
1.1581813467
1.1604935002
1.1638562872
1.1634575725
1.1624740667
1.1647370108
1.1647545385
1.1633106753
1.1613980963
1.1594107666
1.1594601016
1.1609467731
1.1623218097
1.1644273635
1.1645140311
1.1636469568
1.1623795720
1.1581300026
1.1620645240
1.1628462964
1.1562017205
1.1636899409
1.1642032245
1.1635745896
1.1576552149
1.1651939686
1.1598950856
1.1639330854
1.1611989795
1.1567958421
1.1573322519
1.1654188072
1.1598591596
1.1636675510
1.1631667983
1.1647627804
1.1569348297
1.1645023996
1.1623009264
1.1586326681
1.1581367005
1.1586895507
1.1573046281
1.1582722674
1.1651253411
1.1637922583
1.1655895385
1.1599390837
1.1639315437
1.1618600621
1.1599052968
1.1571321385
1.1633262050
1.1638486599
1.1594165834
1.1620109821
1.1629533350
1.1645075474
1.1641174657
1.1611016127
1.1659069788
1.1606896737
1.1620997920
1.1648510956
1.1622045630
1.1620236864
1.1594601275
1.1557947930
1.1621578139
1.1637903547
1.1639446020
1.1617994975
1.1625297700
1.1662922882
1.1656136070
1.1655567156
1.1580366304
1.1628451852
1.1669371663
1.1619986279
1.1651115893
1.1611518747
1.1666018478
1.1661033547
1.1593882696
1.1627544202
1.1619681123
1.1657553188
1.1585504303
1.1566751704
1.1655079258
1.1602198889
1.1661338415
1.1622202006
1.1665767904
1.1612380036
1.1670632579
1.1667276053
1.1673225142
1.1658221105
1.1661528737
1.1675026987
1.1622006109
1.1668451336
1.1628604500
1.1587505406
1.1664445910
1.1604390141
1.1626251232
1.1623601517
1.1654704179
1.1576412597
1.1597181178
1.1621049042
1.1662038918
1.1674508974
1.1626526830
1.1674028055
1.1621303978
1.1568508013
1.1678848212
1.1577979679
1.1651844636
1.1678224938
1.1625091572
1.1657768261
1.1559499682
1.1628597345
1.1551036730
1.1631071086
1.1621968308
1.1567683569
1.1673526230
1.1621023424
1.1621935287
1.1551223182
1.1677953941
1.1628437780
1.1559747626
1.1678582045
1.1651959987
1.1622868334
1.1544147351
1.1552399533
1.1661628853
1.1623118528
1.1555191163
1.1621659069
1.1670702033
1.1538576923
1.1628465302
1.1594028613
1.1611116250
1.1546149330
1.1573501776
1.1544133694
1.1626374162
1.1625842901
1.1629967816
1.1603244367
1.1536080799
1.1583864979
1.1624230991
1.1553236076
1.1629946930
1.1541625991
1.1618624575
1.1563104015
1.1598124390
1.1548639263
1.1652705838
1.1635028472
1.1576532397
1.1534715368
1.1627356396
1.1662365976
1.1608832176
1.1563316125
1.1656939058
1.1647582073
1.1587043321
1.1535511238
1.1584488843
1.1630564944
1.1561116657
1.1528386640
1.1604236826
1.1624978745
1.1565351233
1.1606043564
1.1587391789
1.1626753635
1.1544490590
1.1595118409
1.1619451324
1.1572941511
1.1538392967
1.1621510121
1.1528028048
1.1519913096
1.1627212563
1.1576370285
1.1597427927
1.1629921493
1.1601664038
1.1549445821
1.1532343157
1.1561018894
1.1585348888
1.1552998771
1.1641436450
1.1641871695
1.1525045254
1.1651461054
1.1606658630
1.1623616590
1.1554594408
1.1620537636
1.1579072190
1.1590646085
1.1518682183
1.1546891987
1.1573601026
1.1596510396
1.1538555324
1.1628439097
1.1646371363
1.1646735458
1.1636555675
1.1615692915
1.1611620981
1.1566954436
1.1574777544
1.1622550617
1.1620145925
1.1577185470
1.1519994311
1.1597039552
1.1599036996
1.1548871717
1.1513359132
1.1552511679
1.1586641910
1.1613746483
1.1627168313
1.1623053436
1.1588758874
1.1529541181
1.1504779518
1.1512342271
1.1561984843
1.1523960462
1.1564879738
1.1616080883
1.1516947108
1.1564499005
1.1545641674
1.1640234545
1.1509258400
1.1611361060
1.1588596117
1.1535999011
1.1608475641
1.1630077794
1.1540551730
1.1571771398
1.1536572091
1.1593890121
1.1629992248
1.1531221976
1.1550997072
1.1559230128
1.1635422161
1.1577011422
1.1599144961
1.1616654614
1.1624618867
1.1634774998
1.1503970314
1.1583362546
1.1522256550
1.1603212583
1.1567178474
1.1591712579
1.1537468411
1.1500000278
1.1540108867
1.1617448086
1.1505628848
1.1590022705
1.1565679390
1.1591548569
1.1614708976
1.1573227644
1.1488707328
1.1491691138
1.1536840327
1.1579990731
1.1610289037
1.1574074770
1.1551740828
1.1494105252
1.1510847832
1.1553666092
1.1544330451
1.1557365704
1.1577019519
1.1623011981
1.1515461701
1.1498163654
1.1578617940
1.1473065175
1.1480490824
1.1512554340
1.1618212901
1.1516369491
1.1554729252
1.1607898904
1.1617559519
1.1574971309
1.1558023490
1.1617747750
1.1602002539
1.1598547882
1.1503343619
1.1495347068
1.1595628315
1.1628117830
1.1523584149
1.1580700317
1.1527155044
1.1521102557
1.1549635598
1.1531137943
1.1527267411
1.1622366492
1.1491568149
1.1562850424
1.1475077468
1.1612018917
1.1569939911
1.1609190129
1.1575954411
1.1560801085
1.1486466235
1.1516918412
1.1604092495
1.1497458462
1.1585918807
1.1478938731
1.1623255163
1.1590233918
1.1507311544
1.1535543181
1.1511346931
1.1545025638
1.1479307213
1.1559540963
1.1484401442
1.1558070267
1.1579534173
1.1578183788
1.1528926243
1.1547696722
1.1496470293
1.1472779430
1.1471060168
1.1584522654
1.1565873245
1.1572917466
1.1536020305
1.1597540154
1.1612154593
1.1546643592
1.1493395165
1.1500160578
1.1567735943
1.1527336786
1.1561787599
1.1505073739
1.1525015519
1.1537376485
1.1569485870
1.1592085174
1.1474756524
1.1483119279
1.1506960921
1.1571958136
1.1527880354
1.1480271739
1.1543473291
1.1509380737
1.1490582959
1.1548348269
1.1537686773
1.1520158180
1.1602220047
1.1618175124
1.1485197510
1.1503153652
1.1471068067
1.1556166949
1.1551678091
1.1500479105
1.1552985400
1.1604616761
1.1486500696
1.1550569435
1.1615350385
1.1515227679
1.1561329028
1.1522846028
1.1507463642
1.1482682474
1.1578778520
1.1604987762
1.1519753275
1.1582443697
1.1493509523
1.1484278866
1.1535461869
1.1545165719
1.1518645064
1.1607337288
1.1603130132
1.1597472770
1.1478179694
1.1565395320
1.1610519937
1.1527540247
1.1536649703
1.1591102334
1.1588411785
1.1548912804
1.1581439725
1.1485577012
1.1494691725
1.1542227289
1.1599733038
1.1609175990
1.1544150113
1.1535052041
1.1535775993
1.1572523671
1.1603567975
1.1511823079
1.1525894591
1.1535495519
1.1560798710
1.1486472881
1.1505612852
1.1521400059
1.1613377619
1.1475717343
1.1492607365
1.1588421685
1.1484188184
1.1505606524
1.1519765664
1.1477440683
1.1607304821
1.1515425012
1.1477385396
1.1605007520
1.1520357653
1.1484202462
1.1491126678
1.1483952231
1.1583784065
1.1552208631
1.1530779422
1.1627326649
1.1498496328
1.1475961924
1.1481999185
1.1529347175
1.1550572649
1.1510393677
1.1579670084
1.1578762440
1.1495787881
1.1599702311
1.1535061226
1.1613344600
1.1475966352
1.1478193083
1.1507799192
1.1574082432
1.1610494043
1.1539112621
1.1536358679
1.1617033508
1.1493524056
1.1522501204
1.1590347124
1.1557508208
1.1556659560
1.1566899811
1.1481554895
1.1598462040
1.1479401053
1.1475277192
1.1604372144
1.1545139439
1.1557348588
1.1492216149
1.1614292412
1.1551689361
1.1565389674
1.1486976151
1.1569498528
1.1505626720
1.1522861825
1.1499031261
1.1602279350
1.1505296844
1.1491470033
1.1519643673
1.1498331057
1.1496470358
1.1602243268
1.1476769262
1.1481299285
1.1505614566
1.1488205379
1.1532629079
1.1548385881
1.1511830113
1.1649864389
1.1486773695
1.1577860051
1.1592096595
1.1559568059
1.1509384661
1.1653796767
1.1597578721
1.1505539529
1.1553016706
1.1489607098
1.1633418852
1.1485200438
1.1478682755
1.1606961569
1.1541840357
1.1503657503
1.1477560301
1.1500975517
1.1541230628
1.1549193155
1.1536050989
1.1596985862
1.1535452943
1.1529779953
1.1578180127
1.1700916802
1.1555613920
1.1588431639
1.1524920899
1.1672434987
1.1481301725
1.1564604342
1.1499653484
1.1579656854
1.1505307907
1.1482012487
1.1552210095
1.1561326966
1.1480138803
1.1596378368
1.1604980130
1.1516145812
1.1712300505
1.1524064219
1.1598436646
1.1639435470
1.1535453663
1.1687812553
1.1613393166
1.1475289658
1.1520366470
1.1492228905
1.1566894755
1.1516981953
1.1527041646
1.1511717668
1.1493103557
1.1610464993
1.1560230525
1.1517125112
1.1485057017
1.1545094235
1.1519530430
1.1481557169
1.1576498063
1.1534183462
1.1751464306
1.1526414259
1.1601920033
1.1573894758
1.1782283823
1.1496395142
1.1477142868
1.1536364549
1.1512475128
1.1543073072
1.1606498359
1.1586026560
1.1505954460
1.1520784986
1.1529916087
1.1507195783
1.1741243092
1.1510489557
1.1595300753
1.1559282626
1.1535170690
1.1535906362
1.1495791460
1.1586635579
1.1513598860
1.1664145041
1.1516719877
1.1680593123
1.1652294299
1.1532211823
1.1528065938
1.1524771547
1.1550569992
1.1520256491
1.1579912996
1.1607335389
1.1717178969
1.1522373840
1.1530804188
1.1524444059
1.1600081411
1.1619083161
1.1730862612
1.1694004830
1.1669677176
1.1523131064
1.1525170494
1.1516793194
1.1520484064
1.1789820620
1.1527150604
1.1527987650
1.1719772867
1.1527033275
1.1525066392
1.1700904897
1.1531338267
1.1556658312
1.1527742115
1.1618794444
1.1605015831
1.1532930001
1.1672423857
1.1529951733
1.1533527095
1.1614280387
1.1532810177
1.1635231286
1.1656620943
1.1531951183
1.1537986456
1.1612297125
1.1613133521
1.1615839617
1.1615823097
1.1613107411
1.1622581702
1.1622435648
1.1620321776
1.1619477925
1.1617806577
1.1622407016
1.1618893328
1.1617780503
1.1620310383
1.1615134752
1.1619375560
1.1619043397
1.1619474685
1.1622569687
1.1615463658
1.1613701199
1.1620374188
1.1621478619
1.1609777664
1.1619227997
1.1606507536
1.1622427963
1.1616935159
1.1608723874
1.1620950075
1.1617155177
1.1607878864
1.1608367170
1.1625088448
1.1598143746
1.1604288594
1.1619038849
1.1619715537
1.1615472264
1.1625086163
1.1597063207
1.1609198468
1.1590050501
1.1623383084
1.1582169453
1.1620727321
1.1603559021
1.1594124975
1.1585947003
1.1622408292
1.1606514186
1.1614214328
1.1620638666
1.1619510089
1.1625074686
1.1605033663
1.1630942549
1.1600842840
1.1627455084
1.1607886935
1.1624564531
1.1604279475
1.1600904377
1.1598556989
1.1634319400
1.1598165586
1.1619836777
1.1628874553
1.1599377570
1.1594589630
1.1621764500
1.1610922417
1.1604979317
1.1582220776
1.1589249418
1.1626022581
1.1613778482
1.1582133594
1.1615090316
1.1633494307
1.1590075700
1.1606183235
1.1630938669
1.1623799893
1.1629615315
1.1600892280
1.1627446964
1.1624337490
1.1598523276
1.1616875587
1.1594165835
1.1594410988
1.1625075991
1.1630560736
1.1633131377
1.1623208655
1.1605444051
1.1628011912
1.1614013705
1.1615063633
1.1632929830
1.1630943571
1.1601312727
1.1620650553
1.1619524862
1.1623812385
1.1581288969
1.1642324337
1.1574215128
1.1588006150
1.1626014952
1.1650663259
1.1633498223
1.1608906079
1.1636896304
1.1636467178
1.1626325561
1.1628464164
1.1582185783
1.1587413260
1.1644266531
1.1632315430
1.1613787568
1.1645128175
1.1624326270
1.1625066978
1.1587038912
1.1605406608
1.1619282637
1.1624324296
1.1613669358
1.1630148538
1.1609334760
1.1629620694
1.1598475887
1.1598985282
1.1611965977
1.1609530744
1.1623786581
1.1620292255
1.1647378405
1.1647557889
1.1587380760
1.1649528964
1.1626320338
1.1634576834
1.1627169264
1.1619505170
1.1559750122
1.1574042412
1.1632928256
1.1632318304
1.1618565760
1.1617540500
1.1641695286
1.1642328971
1.1650679834
1.1581832160
1.1605978277
1.1632650408
1.1574227942
1.1616682965
1.1630939530
1.1624725774
1.1569341926
1.1638568010
1.1587955941
1.1645020680
1.1619280754
1.1639305271
1.1582738349
1.1609495651
1.1566564744
1.1624305656
1.1655881722
1.1603345142
1.1647779626
1.1608230214
1.1594572316
1.1638004773
1.1609511660
1.1635197360
1.1573067453
1.1652915944
1.1581374447
1.1615698383
1.1613713843
1.1651255027
1.1598990767
1.1587027800
1.1645433576
1.1605936227
1.1638485941
1.1629594808
1.1649539225
1.1632651599
1.1645069580
1.1618542847
1.1562055265
1.1613413525
1.1627159490
1.1642036764
1.1574053739
1.1650539843
1.1559775024
1.1620110169
1.1594195426
1.1641697436
1.1647781889
1.1645363136
1.1610351522
1.1652928872
1.1573340679
1.1594583842
1.1630727998
1.1635203948
1.1616987255
1.1615666881
1.1608236642
1.1567979428
1.1576552582
1.1654192054
1.1639240198
1.1651946295
1.1606924041
1.1635749500
1.1603428587
1.1620246000
1.1598631532
1.1566579272
1.1650532557
1.1580352102
1.1609785420
1.1613612839
1.1639501106
1.1639486201
1.1646060943
1.1636670024
1.1586322602
1.1622975281
1.1650354522
1.1631583900
1.1647615234
1.1642485777
1.1641293861
1.1637895208
1.1618004439
1.1613458814
1.1656159574
1.1599384137
1.1647485351
1.1603244243
1.1610319382
1.1616981775
1.1630715659
1.1638901417
1.1620001666
1.1651137430
1.1628467855
1.1618591303
1.1586941126
1.1566718722
1.1598202520
1.1619705689
1.1632145094
1.1613617978
1.1650319028
1.1641158129
1.1633204085
1.1609773090
1.1641302516
1.1646051253
1.1611009708
1.1622226569
1.1609857043
1.1657564981
1.1620678586
1.1659046953
1.1639487148
1.1655091625
1.1642448394
1.1571364497
1.1623034126
1.1554569525
1.1592721604
1.1672437427
1.1647438170
1.1638879326
1.1616981023
1.1664661661
1.1641617637
1.1657259724
1.1622029347
1.1603363818
1.1670624476
1.1620984293
1.1658798650
1.1648482091
1.1621352687
1.1612411352
1.1667274801
1.1658212595
1.1609781361
1.1620645762
1.1597181017
1.1623626718
1.1632149982
1.1667199820
1.1623008810
1.1625403429
1.1660869180
1.1590481776
1.1598324817
1.1621546316
1.1662919158
1.1587485766
1.1622964883
1.1557997649
1.1655552737
1.1619167949
1.1604405519
1.1661295224
1.1664453417
1.1625266094
1.1668443561
1.1657259746
1.1611518269
1.1669374595
1.1667640431
1.1582486617
1.1641551194
1.1662384413
1.1666012278
1.1674012708
1.1619875678
1.1618490714
1.1661039329
1.1621335564
1.1592864717
1.1616946695
1.1672444084
1.1554611255
1.1658794935
1.1662046791
1.1665563099
1.1664660866
1.1674496485
1.1621329527
1.1665776931
1.1628641001
1.1580490389
1.1622944760
1.1625369370
1.1648893979
1.1668694691
1.1672726667
1.1585530819
1.1661328808
1.1602195846
1.1625131125
1.1660870626
1.1619150546
1.1590583306
1.1628317159
1.1627513381
1.1657795042
1.1661293208
1.1577953180
1.1663201594
1.1593902061
1.1667200845
1.1627838540
1.1621064892
1.1661509492
1.1675038517
1.1618462386
1.1569512937
1.1667640464
1.1620697429
1.1619861846
1.1582591328
1.1631112313
1.1662367434
1.1673239029
1.1621976006
1.1665565842
1.1567653118
1.1564965913
1.1678558901
1.1576441200
1.1627798363
1.1648841994
1.1651995675
1.1628274038
1.1672740588
1.1663206306
1.1655606493
1.1626561713
1.1668698307
1.1580573496
1.1628033162
1.1677931298
1.1667164130
1.1626210505
1.1654668874
1.1559712769
1.1657513415
1.1628562257
1.1555124995
1.1674017229
1.1626484515
1.1621706847
1.1568536765
1.1670677650
1.1569605232
1.1621009370
1.1623166491
1.1620672311
1.1552360967
1.1670695535
1.1678247649
1.1624425921
1.1626518198
1.1627994558
1.1626420326
1.1657514279
1.1655581783
1.1627363678
1.1646092777
1.1559531017
1.1667169087
1.1678870667
1.1565031585
1.1628354322
1.1626904547
1.1651828186
1.1625887258
1.1546110171
1.1551259328
1.1662338745
1.1674042120
1.1621886740
1.1670720268
1.1665927107
1.1666285583
1.1551093547
1.1621921871
1.1673547518
1.1541588898
1.1626799994
1.1587392033
1.1620100307
1.1606083945
1.1544185779
1.1626856515
1.1529605183
1.1629427488
1.1565319267
1.1618294054
1.1624385106
1.1535474938
1.1628390305
1.1630194760
1.1646033507
1.1622826781
1.1630650838
1.1597449603
1.1614336665
1.1527999871
1.1576350037
1.1621557431
1.1544451692
1.1628306356
1.1630612479
1.1627319297
1.1656941982
1.1522338734
1.1538610620
1.1665948922
1.1611604585
1.1554557007
1.1666313403
1.1590481722
1.1538517031
1.1646721924
1.1628534047
1.1641749771
1.1566823454
1.1525032987
1.1620598073
1.1661658435
1.1601557559
1.1552915494
1.1651424178
1.1635470414
1.1641473036
1.1578907549
1.1544174019
1.1577185165
1.1612372606
1.1629899413
1.1552482258
1.1519969926
1.1618247802
1.1529635978
1.1620058957
1.1629300983
1.1513456284
1.1599078214
1.1622596503
1.1629381049
1.1573531373
1.1611080148
1.1594025663
1.1628417718
1.1553275641
1.1588780640
1.1616130167
1.1630147040
1.1564860856
1.1529509729
1.1624183330
1.1536118023
1.1512327385
1.1608158256
1.1628672463
1.1583882915
1.1614289784
1.1603225028
1.1630603763
1.1608888705
1.1540518564
1.1506935881
1.1522255404
1.1550900038
1.1576839463
1.1563422143
1.1635389191
1.1647567754
1.1635414423
1.1534750228
1.1656972123
1.1630526276
1.1599084295
1.1616722414
1.1563140239
1.1656963107
1.1627268867
1.1587198532
1.1598258349
1.1509267293
1.1536534175
1.1564346129
1.1588459274
1.1548705772
1.1634930547
1.1641685700
1.1640193827
1.1522360371
1.1652735422
1.1630032873
1.1608494718
1.1623860608
1.1618593894
1.1576667176
1.1567177142
1.1605991409
1.1624931861
1.1629254579
1.1617491880
1.1584484716
1.1528419146
1.1498701106
1.1591583836
1.1513471418
1.1604195587
1.1540086472
1.1505612079
1.1561142942
1.1612323827
1.1580007979
1.1610336233
1.1628626990
1.1624973086
1.1595093720
1.1538427371
1.1498152765
1.1601696240
1.1519937329
1.1608108059
1.1553650873
1.1515439983
1.1572956307
1.1619402257
1.1507325654
1.1573768940
1.1535500761
1.1646411550
1.1518684840
1.1604125033
1.1596618601
1.1527130940
1.1615634935
1.1623788338
1.1618443017
1.1623240759
1.1493431313
1.1549478027
1.1562717173
1.1546969602
1.1585845462
1.1636526281
1.1521102370
1.1561150590
1.1549537758
1.1641894350
1.1506941571
1.1611460465
1.1585515289
1.1606676774
1.1623525634
1.1617770688
1.1628070997
1.1495353728
1.1574847756
1.1532372592
1.1595616893
1.1630450401
1.1579517870
1.1500155738
1.1486390446
1.1547683803
1.1574773830
1.1605944050
1.1584832513
1.1568104392
1.1528910153
1.1489363822
1.1493378801
1.1548891266
1.1534277288
1.1565869669
1.1579286890
1.1620101588
1.1513382232
1.1498713664
1.1584548122
1.1558067852
1.1597000267
1.1479300478
1.1474529806
1.1525004492
1.1612193797
1.1511685314
1.1553309821
1.1599724276
1.1580094472
1.1495448741
1.1486485861
1.1544760175
1.1586619305
1.1613699371
1.1589282245
1.1567823247
1.1543461742
1.1500099332
1.1503136508
1.1561995993
1.1537486023
1.1564729638
1.1583745807
1.1624930316
1.1523985828
1.1504796377
1.1595468098
1.1571969074
1.1601650276
1.1476655603
1.1476943681
1.1520568820
1.1620232554
1.1523282945
1.1561217925
1.1604656936
1.1515555068
1.1610490717
1.1482788370
1.1583486896
1.1482825281
1.1605751375
1.1548838758
1.1624591550
1.1603145592
1.1605260734
1.1565467171
1.1591111869
1.1581446365
1.1501743925
1.1494699105
1.1611417632
1.1503957286
1.1488131309
1.1603194939
1.1474106195
1.1634821161
1.1515210268
1.1572468132
1.1536022778
1.1531250577
1.1559367277
1.1531738251
1.1521390716
1.1535493310
1.1615294733
1.1484273312
1.1571927356
1.1477555021
1.1604987402
1.1561249393
1.1618384386
1.1606152906
1.1606785523
1.1584230824
1.1598587405
1.1569792091
1.1491458312
1.1507470960
1.1611302374
1.1493437954
1.1503651777
1.1593944394
1.1482676453
1.1630095460
1.1582425719
1.1516941221
1.1545726264
1.1518640745
1.1535418900
1.1484711398
1.1535312316
1.1567652937
1.1592821779
1.1477379001
1.1489373509
1.1491117403
1.1501980608
1.1565677653
1.1586297236
1.1519692414
1.1585585066
1.1586283249
1.1477249540
1.1537482212
1.1555359447
1.1504765459
1.1474538807
1.1507750483
1.1472425942
1.1485913508
1.1589991551
1.1572964932
1.1579315127
1.1544875947
1.1545131278
1.1555338999
1.1529339494
1.1604639306
1.1614669210
1.1482305689
1.1553320485
1.1500019577
1.1473073590
1.1472773093
1.1557490929
1.1557334007
1.1507753364
1.1510384071
1.1562074759
1.1534292214
1.1568115719
1.1547829696
1.1599684081
1.1486409313
1.1511695784
1.1533103126
1.1572888409
1.1488717005
1.1541952999
1.1577225205
1.1546635175
1.1599100805
1.1475160964
1.1480498566
1.1486393680
1.1510931979
1.1578601615
1.1584864640
1.1523428245
1.1585678690
1.1479326715
1.1551749167
1.1557376963
1.1518270416
1.1472474605
1.1472467016
1.1493407486
1.1595431866
1.1573237340
1.1574091332
1.1556853382
1.1543397456
1.1525849584
1.1609447211
1.1620193627
1.1492389850
1.1505063352
1.1544341905
1.1510866876
1.1472436228
1.1561306365
1.1557223143
1.1512565586
1.1505514343
1.1565834209
1.1523292468
1.1561223943
1.1548413575
1.1607857273
1.1491709294
1.1500104993
1.1536858745
1.1557920966
1.1622417803
1.1524911866
1.1541218014
1.1598572255
1.1523601186
1.1597459733
1.1570041645
1.1569788158
1.1491464678
1.1531882802
1.1516915606
1.1478945148
1.1541827364
1.1594191316
1.1605245898
1.1583973762
1.1612010737
1.1548795449
1.1527700780
1.1534172626
1.1590242901
1.1595008724
1.1507172945
1.1531547834
1.1515561025
1.1575948095
1.1479212243
1.1479219866
1.1499978980
1.1491562377
1.1545104922
1.1548805042
1.1511352845
1.1490613309
1.1609421686
1.1601985118
1.1476762994
1.1488059129
1.1601790236
1.1594481894
1.1481615822
1.1608273490
1.1512822520
1.1571796613
1.1617582114
1.1529770173
1.1540122860
1.1598522948
1.1589796845
1.1558132529
1.1584223676
1.1486862711
1.1503329287
1.1490618578
1.1545081228
1.1602569667
1.1606769664
1.1590263643
1.1605723659
1.1553017265
1.1542953092
1.1538180923
1.1580759866
1.1601777048
1.1513577727
1.1529177115
1.1527271685
1.1565464048
1.1491464492
1.1532274544
1.1513069896
1.1482804027
1.1531170630
1.1548261234
1.1531740712
1.1615165874
1.1606135865
1.1579217050
1.1477426754
1.1494012482
1.1597185691
1.1595019203
1.1489269618
1.1508223297
1.1487408578
1.1594161254
1.1527711317
1.1477254397
1.1609387886
1.1519701326
1.1474761892
1.1477442810
1.1529821804
1.1479342054
1.1602287580
1.1603642744
1.1566577988
1.1562844019
1.1513392736
1.1495423071
1.1613186640
1.1489286491
1.1509447868
1.1495433211
1.1520578260
1.1485921208
1.1577487853
1.1572963641
1.1589333697
1.1477437258
1.1476666778
1.1562857556
1.1541953844
1.1545366386
1.1535320964
1.1564746950
1.1478861711
1.1618504659
1.1484702830
1.1590158811
1.1501989930
1.1516380178
1.1474691719
1.1482745442
1.1561774569
1.1472340104
1.1629921880
1.1591751516
1.1543269783
1.1476950064
1.1535084799
1.1552784042
1.1478710017
1.1604649616
1.1535091909
1.1550773877
1.1557921334
1.1499990757
1.1515871809
1.1575011875
1.1583952602
1.1554731705
1.1502191658
1.1602536039
1.1542959884
1.1477519142
1.1615131657
1.1510940906
1.1474697400
1.1498487695
1.1481631889
1.1516079403
1.1483127586
1.1587987423
1.1609225981
1.1550570015
1.1529150860
1.1623655361
1.1499994508
1.1532470314
1.1484393535
1.1500489867
1.1480277917
1.1605024001
1.1577048197
1.1530770129
1.1562093332
1.1569429167
1.1560967581
1.1527888638
1.1483983668
1.1631746151
1.1596345059
1.1493416074
1.1552768041
1.1477515600
1.1480015889
1.1473713174
1.1618805066
1.1541962056
1.1552999414
1.1487336614
1.1626401719
1.1537694740
1.1547840919
1.1571787012
1.1491387244
1.1520167616
1.1586870316
1.1590238356
1.1577239952
1.1513083149