<VTKFile type="UnstructuredGrid" version="0.1">
	<UnstructuredGrid>
		<Piece NumberOfPoints="1862" NumberOfCells="3498">
			<CellData>
				<DataArray type="Int32" Name="type" NumberOfComponents="1" Format="ascii">
0
0
0
0
0
0
0
0
0
0
0
0
0
0
0
0
1
0
0
1
0
0
0
0
0
0
0
0
0
0
0
0
0
1
0
0
0
0
0
0
0
0
0
0
0
0
0
0
0
0
1
0
0
0
0
0
0
0
0
0
0
1
0
0
0
0
0
0
0
0
0
0
0
0
0
0
0
0
0
0
0
0
0
0
0
0
0
0
0
0
0
0
0
0
0
0
0
0
0
0
0
0
0
0
0
0
0
0
0
0
0
0
0
0
0
0
0
0
0
0
0
0
0
1
0
0
0
0
0
0
0
0
0
0
0
0
0
0
0
0
0
0
0
0
0
0
0
0
0
0
0
1
0
1
1
0
0
0
0
0
0
0
0
0
0
0
0
0
1
0
1
0
0
0
0
1
0
0
0
0
0
0
0
0
1
1
0
0
0
0
0
1
0
0
0
0
0
0
0
0
1
0
0
0
0
0
0
0
0
0
0
0
0
0
0
0
0
0
0
0
0
0
0
0
0
0
0
0
0
0
0
0
0
1
0
0
0
0
0
0
0
0
0
0
0
0
0
0
0
0
0
0
0
0
0
0
0
0
0
0
0
0
0
0
0
0
0
0
0
0
0
0
0
0
0
0
0
0
0
0
0
1
0
0
0
0
0
0
0
0
0
0
0
0
0
0
0
0
0
0
0
0
0
0
0
0
0
0
0
0
0
0
0
0
0
0
0
0
0
0
0
0
0
0
0
0
0
0
0
0
0
0
1
0
0
0
0
0
0
0
0
0
0
0
0
0
0
0
0
0
0
0
0
0
0
0
0
0
0
0
0
0
0
0
0
0
0
0
0
0
0
0
0
0
0
0
0
0
0
0
0
0
0
0
0
0
0
0
0
0
1
0
0
0
0
0
0
0
0
0
0
0
0
0
0
0
0
0
0
0
0
0
0
0
0
0
0
0
0
0
0
0
0
0
0
0
0
0
0
0
0
0
0
0
0
0
0
0
0
0
0
0
0
0
0
0
0
0
0
0
0
0
0
0
0
0
0
0
0
0
0
0
0
0
0
0
0
0
0
0
0
0
0
0
0
0
0
0
0
0
0
0
0
0
0
0
0
0
0
0
0
0
0
0
0
0
0
0
0
0
0
0
0
0
0
0
0
0
0
0
0
0
0
0
0
0
0
0
0
0
0
0
0
1
0
0
0
0
0
0
0
0
0
0
0
0
0
0
0
0
0
0
0
1
0
0
0
0
0
0
0
0
0
0
0
0
0
0
0
0
0
0
0
0
0
0
0
0
0
0
0
0
0
0
0
0
0
0
0
0
0
0
0
0
0
0
0
0
0
0
0
0
0
0
0
0
0
1
0
0
0
0
0
0
0
0
0
0
0
0
0
0
0
0
0
0
0
0
0
0
0
1
0
0
0
0
0
0
0
0
0
0
0
0
0
0
0
0
0
0
0
1
0
0
0
1
0
0
0
0
0
0
0
0
0
0
0
0
0
0
0
0
0
0
0
0
0
0
0
0
0
1
0
0
0
0
0
0
0
1
0
0
0
0
0
0
0
0
0
0
0
0
0
0
0
0
0
0
0
0
0
0
0
0
0
0
1
0
0
0
0
0
0
0
1
0
0
0
0
0
0
1
0
0
0
0
0
0
0
0
0
0
0
0
0
0
0
0
0
0
0
0
0
0
0
0
0
0
0
0
0
0
0
0
0
0
0
0
0
0
1
0
0
0
0
0
1
0
0
0
0
0
0
0
1
0
0
0
0
0
0
0
0
0
0
0
0
0
1
0
0
0
0
0
0
0
0
0
0
0
0
0
0
0
0
0
0
0
0
0
0
0
0
0
0
0
0
0
0
0
0
0
0
0
0
0
0
0
0
0
0
0
0
0
0
0
0
0
0
0
0
0
1
0
0
0
0
0
0
0
0
0
0
0
0
0
0
0
0
0
0
0
1
0
0
0
0
0
0
0
0
0
1
0
0
0
0
0
0
0
0
0
0
0
0
0
0
0
0
0
0
0
0
0
0
0
0
0
0
0
0
0
1
0
1
0
0
0
0
0
0
0
0
0
0
0
0
0
0
0
0
0
0
0
0
0
0
0
0
0
0
0
1
0
0
0
1
0
0
0
0
0
0
0
0
0
0
0
0
0
0
0
0
0
0
0
0
0
0
0
0
0
0
0
0
1
0
0
0
0
0
0
0
0
0
0
0
0
0
0
0
0
0
0
0
0
0
0
0
0
0
1
0
0
0
0
0
0
0
0
0
0
0
0
0
0
0
0
0
0
0
0
0
0
0
1
0
0
0
0
0
0
1
0
0
0
0
0
0
0
0
0
0
0
1
0
0
0
0
0
0
0
0
0
0
0
0
0
0
0
0
0
0
0
0
1
0
0
0
0
0
0
0
0
0
0
0
1
0
0
0
0
0
0
0
0
0
0
0
0
0
0
0
0
0
0
0
0
0
1
0
0
0
0
0
0
0
0
0
1
1
0
1
0
1
0
0
0
0
0
0
0
0
0
0
0
1
0
0
0
0
0
1
1
0
0
0
0
0
0
1
0
0
0
0
0
1
1
1
0
0
0
0
0
0
0
0
0
0
0
0
1
1
0
0
1
0
0
0
0
0
1
0
0
0
1
0
1
0
0
0
0
0
0
0
1
0
0
0
0
0
0
0
1
0
0
1
0
0
0
0
0
0
0
0
0
0
0
0
0
0
0
1
0
0
0
0
0
0
0
0
0
0
0
0
0
0
0
0
0
0
0
0
0
0
0
0
0
0
0
0
0
0
0
0
0
0
0
0
1
0
0
0
0
0
0
1
0
0
0
1
0
0
0
0
0
0
0
0
0
0
0
1
0
0
0
0
0
0
0
0
0
0
0
0
0
0
0
0
0
0
0
0
0
0
0
0
0
0
0
0
0
0
0
0
0
0
0
0
0
0
0
0
1
1
0
0
0
0
0
0
0
0
0
0
0
0
0
1
0
0
0
0
0
0
0
0
0
0
0
0
0
0
0
0
0
0
0
0
0
0
0
0
0
0
0
0
0
0
0
0
0
0
0
0
0
0
0
0
0
0
0
0
0
0
0
0
0
0
0
0
0
0
0
0
0
0
0
0
0
0
0
0
0
0
0
0
0
0
0
0
1
1
0
0
0
0
0
0
0
0
1
0
0
0
0
0
0
0
0
0
0
0
0
0
0
0
0
0
0
0
0
0
0
0
1
0
0
0
0
0
0
0
0
0
0
0
0
0
0
0
0
1
0
0
0
0
0
0
0
0
0
0
0
0
0
0
0
0
0
0
0
0
0
0
0
0
0
0
0
0
0
0
0
0
0
0
0
0
0
0
0
0
0
0
0
0
0
0
0
0
0
0
0
0
0
0
0
0
0
0
0
0
0
0
0
0
0
0
0
0
0
0
0
0
0
0
0
0
0
0
0
0
0
0
0
0
0
0
0
0
0
0
1
1
0
0
0
0
0
1
0
0
0
0
0
0
0
0
0
0
0
0
1
0
0
0
0
0
0
0
0
0
0
0
0
0
0
0
0
0
0
0
0
0
0
0
0
0
0
0
0
0
0
0
0
0
0
0
0
0
0
0
0
0
0
0
0
0
0
0
0
0
0
0
0
0
1
0
1
0
0
0
0
0
0
0
0
0
0
0
0
0
0
0
0
0
0
1
0
0
0
0
0
0
0
0
0
0
0
0
0
0
0
0
0
0
0
0
0
0
0
0
0
0
0
0
0
0
0
0
0
0
0
0
0
0
0
0
0
0
0
0
0
0
0
0
0
0
0
0
0
0
0
0
0
0
0
0
0
0
0
0
0
0
0
0
0
0
1
0
0
0
0
0
0
0
0
0
0
1
0
0
0
0
0
0
0
0
0
0
0
0
0
0
0
0
0
0
0
0
0
0
0
0
0
0
0
0
0
0
0
0
0
0
0
0
0
1
0
0
0
0
0
0
0
0
0
0
0
0
0
0
0
0
0
0
0
0
0
0
0
0
0
0
0
0
0
0
0
0
0
0
0
0
0
0
0
0
0
0
0
0
0
0
0
0
0
0
0
0
0
0
0
0
0
0
0
0
0
0
0
0
0
0
0
0
0
0
0
0
0
0
0
0
0
0
0
0
0
1
0
0
0
0
0
0
0
0
0
0
0
0
0
0
0
0
0
0
0
0
0
0
0
0
0
0
0
0
0
0
0
0
0
0
0
0
0
0
0
0
0
0
0
0
0
0
0
0
0
0
0
0
0
0
0
0
0
0
0
0
0
0
0
0
0
0
0
0
0
0
0
0
0
0
0
0
0
0
0
0
0
0
0
0
0
0
0
0
0
0
0
0
0
0
0
0
0
0
0
0
0
0
0
0
0
0
0
0
0
0
0
0
0
0
0
0
0
0
0
0
0
0
0
1
0
0
0
0
0
0
0
0
0
0
0
0
0
0
0
0
0
0
0
0
0
0
0
0
0
0
0
0
0
0
0
0
0
0
0
0
0
0
0
0
0
0
0
0
0
0
0
0
0
0
0
0
0
0
0
0
0
0
0
0
0
0
0
0
0
0
0
0
0
0
0
0
0
0
0
0
0
0
0
0
0
1
0
0
0
0
0
0
0
1
0
0
0
0
0
0
0
0
0
0
0
0
0
0
0
0
0
0
0
0
0
0
0
0
0
0
0
0
0
0
0
0
0
0
0
0
0
1
0
0
0
0
0
0
0
0
0
0
0
0
0
0
0
0
0
0
0
0
0
1
0
0
0
0
0
0
0
0
0
0
0
0
1
1
0
0
0
0
0
0
0
0
0
0
0
0
0
0
0
1
1
0
1
0
0
0
0
0
0
0
0
0
1
0
0
0
0
0
0
1
0
0
0
0
0
0
0
0
0
0
1
0
0
0
0
1
0
1
0
0
0
0
0
0
0
1
0
0
0
1
0
0
0
1
0
1
1
0
0
1
1
0
0
0
1
0
0
0
1
0
0
0
0
0
0
0
0
0
1
0
0
0
0
0
0
1
0
0
0
0
0
0
0
0
0
0
0
0
0
0
0
0
0
0
0
0
0
0
0
0
0
0
0
1
0
0
1
0
0
0
0
0
0
0
0
0
0
0
0
0
0
0
0
0
0
1
0
0
1
0
0
0
0
0
0
0
0
0
0
0
1
0
0
1
0
0
0
0
0
0
0
0
0
0
0
1
1
0
0
0
0
0
0
0
0
0
0
0
0
1
0
0
0
0
0
0
0
0
0
0
0
0
0
0
0
0
0
1
0
0
0
0
0
0
0
0
0
0
0
0
0
0
0
0
0
1
0
0
0
0
0
0
0
0
0
0
0
0
0
0
0
0
0
0
0
0
0
0
0
0
0
0
0
0
0
0
0
0
0
0
0
0
0
0
0
0
1
0
0
0
0
0
0
0
0
0
0
0
0
0
0
0
0
0
0
0
0
0
0
0
0
0
0
0
0
0
0
0
0
0
0
0
0
0
0
0
0
0
0
0
0
0
1
0
0
0
0
0
0
0
0
0
0
0
0
0
0
0
0
0
0
0
0
0
0
0
0
0
0
0
0
0
0
0
0
0
0
0
0
0
0
0
0
0
0
0
0
0
0
0
1
0
0
0
0
0
0
0
0
0
0
1
0
0
0
0
0
0
0
0
0
0
0
0
0
0
0
1
0
0
1
0
0
0
0
0
0
0
0
0
0
0
0
0
0
0
0
0
0
0
0
0
0
0
1
0
0
0
0
0
0
0
0
0
0
0
0
0
0
0
0
0
0
0
0
0
0
0
0
0
0
0
0
0
0
0
0
0
0
0
1
0
0
0
0
0
0
0
0
0
0
0
0
0
0
0
0
0
0
0
0
0
0
0
0
0
0
0
0
0
0
0
0
0
0
0
0
0
0
0
0
0
0
0
0
0
0
0
0
0
0
0
0
0
0
0
0
0
0
0
0
0
0
0
0
0
0
0
0
0
0
0
0
0
0
0
0
1
0
0
0
0
0
0
0
0
0
0
0
0
0
0
0
0
0
0
0
0
0
0
0
0
0
0
0
0
0
0
0
0
0
0
0
0
0
0
0
1
0
0
0
0
0
0
0
0
0
0
0
0
1
1
0
0
0
0
0
0
0
0
0
0
0
0
0
0
0
0
0
0
0
0
0
0
0
0
0
0
0
0
0
0
0
0
0
0
0
0
0
0
0
0
0
0
0
0
0
0
0
0
0
0
0
0
0
0
0
0
0
0
0
0
0
0
0
0
0
0
0
0
0
0
0
0
0
0
0
0
0
0
0
0
0
0
0
0
0
0
0
0
0
0
0
0
0
0
0
0
0
0
0
0
0
1
0
1
0
0
0
0
0
0
0
1
1
1
1
0
0
0
0
0
0
0
0
0
0
0
0
0
0
0
0
0
0
0
0
0
0
0
0
0
0
0
0
1
1
0
0
0
0
0
0
0
0
0
0
0
0
0
0
0
0
0
0
1
0
0
0
0
0
0
0
1
1
0
1
1
0
0
1
0
0
0
0
0
0
0
1
0
1
0
0
0
0
0
0
0
0
0
0
0
0
0
0
0
0
0
0
0
0
0
0
0
0
0
0
0
1
1
0
0
0
1
1
0
0
0
0
1
0
0
1
0
1
0
0
0
0
0
1
0
0
0
1
0
0
0
0
0
0
0
0
0
0
0
0
0
0
0
0
0
0
0
0
0
0
0
0
0
0
0
1
0
0
0
0
0
0
1
0
0
0
0
0
0
0
0
0
0
0
0
0
0
0
0
0
0
0
0
0
0
0
0
0
0
0
0
0
1
0
1
0
0
0
0
0
0
0
1
0
0
0
0
0
0
0
0
0
0
0
1
0
0
0
0
0
0
0
0
0
1
0
0
0
0
0
0
0
1
0
0
0
0
0
0
0
1
0
0
0
0
0
0
0
0
0
0
0
0
0
0
0
0
0
0
0
1
0
1
0
0
0
0
0
1
0
0
0
0
0
0
0
0
0
0
0
0
0
0
0
0
0
0
0
0
0
0
0
0
0
1
0
1
0
0
0
0
0
0
0
0
0
1
0
0
0
0
0
1
0
0
0
0
0
0
0
0
0
0
0
0
0
0
0
1
0
0
0
0
0
0
0
0
1
0
0
0
0
0
0
0
0
0
0
0
0
0
0
0
0
0
0
0
0
0
0
0
0
0
0
0
0
0
0
1
0
0
0
0
0
0
0
0
0
0
0
0
0
0
0
0
1
0
0
0
0
0
0
0
0
1
0
0
0
0
0
0
0
0
0
1
0
0
0
0
0
1
0
0
0
0
0
0
0
0
0
0
0
0
0
0
0
0
0
0
0
1
0
0
0
0
0
0
1
0
0
0
0
0
0
0
0
1
0
0
0
0
0
0
0
0
0
0
0
0
0
0
1
0
0
1
0
0
0
1
0
0
0
0
0
0
0
0
0
0
0
0
0
0
0
0
1
0
0
0
0
0
0
0
0
0
0
1
0
1
0
0
0
0
0
0
1
0
0
0
0
0
0
0
0
0
0
0
0
0
0
0
0
0
0
0
0
0
0
0
0
0
0
0
1
1
0
0
0
0
0
0
1
0
0
0
0
0
0
0
0
0
0
0
0
0
1
0
0
0
0
0
0
0
1
0
0
0
0
0
0
0
0
0
0
0
0
0
0
0
0
0
0
0
0
0
0
0
0
0
0
0
1
0
0
0
0
0
0
0
0
0
0
1
0
0
1
0
0
0
0
0
0
0
0
0
0
0
0
0
0
0
0
0
0
0
0
0
0
0
0
0
0
0
0
0
1
0
0
0
0
0
0
0
1
0
0
0
0
0
0
0
1
0
0
0
0
1
0
0
0
0
0
0
0
0
0
0
0
1
0
1
0
0
0
1
0
				</DataArray>
				<DataArray type="Float64" Name="h" NumberOfComponents="1" Format="ascii">
1.2126415830
1.2126587438
1.2093486147
1.2131942911
1.2083911004
1.2099715103
1.2109453681
1.2147084928
1.2124316214
1.2176519311
1.2144885230
1.2107772016
1.2135499905
1.2159980141
1.2141112387
1.2153840506
1.2124537645
1.2165191077
1.2124390161
1.2151899502
1.2081160359
1.2124390375
1.2093349111
1.2069398198
1.2137167563
1.2168775574
1.2091196082
1.2001119876
1.2075955269
1.2170325272
1.2163733589
1.2092953250
1.2123957795
1.2096362454
1.2006555654
1.2054521956
1.2047039025
1.2075878959
1.1993205115
1.2065094101
1.2073207627
1.2000125817
1.2092044884
1.2058644771
1.2050916301
1.2020308862
1.2075550643
1.1987098003
1.1756098431
1.1788895201
1.2064316129
1.2038893199
1.2057305572
1.1917476405
1.2015661644
1.2072356274
1.2019845640
1.1941842219
1.1920837937
1.1931509669
1.1876542917
1.1899966475
1.1772894312
1.2036669323
1.2036904654
1.1962022989
1.1817593735
1.1806109631
1.1899331406
1.1923365835
1.1916000462
1.2013327145
1.2056832368
1.1893510038
1.1907314683
1.1956163270
1.1937215868
1.1874473263
1.1961427492
1.1973836483
1.1828764986
1.1943451752
1.1655711175
1.1834746484
1.1989358149
1.1941291240
1.1807598551
1.1858038803
1.1858428450
1.1688836751
1.1791788657
1.1955836691
1.1850686192
1.1722625178
1.1924374954
1.1941257577
1.1884479462
1.1985963361
1.1973651374
1.1806046648
1.1679787681
1.1829337090
1.1903249332
1.1966494462
1.2200017169
1.1842318452
1.1905763581
1.1729695754
1.1878016104
1.1923123861
1.1747222083
1.1713943080
1.1819318570
1.1782507019
1.1877937382
1.1695559809
1.1900960217
1.2194680140
1.1727574069
1.1850113301
1.2198799459
1.1880771907
1.1922543542
1.2225953862
1.1811005212
1.1720666854
1.1874710851
1.2230544227
1.1714420762
1.1687123223
1.1739692490
1.1904456253
1.1844997590
1.1687529241
1.2195077619
1.1745184295
1.2184477722
1.1672158196
1.1781285267
1.2133444252
1.2234774772
1.2212583507
1.1713807381
1.2103798637
1.1922556207
1.1763297062
1.2158984564
1.1617566929
1.2217545153
1.1593320175
1.2193303880
1.1664049220
1.1650342962
1.1594230144
1.1803650385
1.1654096277
1.1614489229
1.2214242483
1.1599386044
1.2257235436
1.2116782220
1.1623499581
1.2167955789
1.2237838836
1.2223005019
1.1649168590
1.2071070736
1.2146316322
1.2245923601
1.1638111713
1.1626484928
1.2260667848
1.1602052710
1.2218880829
1.2051804121
1.1572554158
1.2085230869
1.1600392138
1.1577479712
1.2239976450
1.1660141404
1.2017811964
1.2257636792
1.1904260600
1.2260609832
1.2277313637
1.2037453752
1.1583005622
1.2254098772
1.2286889034
1.1983890915
1.1579398398
1.2271972416
1.2003794618
1.1575551899
1.1617606647
1.2228503724
1.1950450136
1.1970082253
1.1574128355
1.2287339211
1.1888356965
1.2281478187
1.1578312974
1.1917505838
1.2251634349
1.2143583175
1.2192893535
1.1936388342
1.2082995108
1.1981583807
1.2273276218
1.2239509828
1.2261688637
1.2169480861
1.1947664105
1.2114492160
1.2235021393
1.2015690736
1.2262733739
1.1903150450
1.1707667459
1.2049676094
1.1769375588
1.1870941691
1.1578783073
1.1644007242
1.1827073576
1.1885263228
1.1675177128
1.1578749244
1.1739540321
1.1852042511
1.1572247044
1.1593914187
1.1797954328
1.1961273959
1.2123992773
1.2271721569
1.2060195924
1.1956906103
1.2176932433
1.2238130617
1.2063461623
1.2179174157
1.2127094137
1.2244989470
1.1995277700
1.2152111324
1.2220246999
1.2093082274
1.1991386223
1.2225555895
1.1928043829
1.1923264603
1.2248744733
1.2096145681
1.2154679345
1.2261700089
1.1746789936
1.2026034107
1.1853697725
1.1816533081
1.1762282781
1.1853853251
1.1599621192
1.1578365752
1.1882418604
1.1573358901
1.1701610955
1.1640661178
1.2029588493
1.1683406739
1.1804515514
1.1776091596
1.1865261822
1.1837699720
1.1790617025
1.1732575425
1.1870344420
1.1652101107
1.1571717350
1.1582429642
1.1592939199
1.1670417062
1.1715518547
1.1831736511
1.2101445269
1.2230259882
1.2222043799
1.2105697916
1.1936379883
1.2158010408
1.2162418086
1.2034966932
1.1930314429
1.2039577744
1.2131308660
1.2203053570
1.2248754386
1.2232904130
1.2135551443
1.1970271062
1.1897544383
1.1903890850
1.2069070591
1.1964723703
1.2073395487
1.2209608036
1.1835862226
1.1795677228
1.1804542461
1.1572587683
1.1860763571
1.1637102373
1.1739500549
1.1999901063
1.1678166751
1.1577511220
1.2004928738
1.1754923292
1.1837907003
1.1695906827
1.1598114123
1.1822668952
1.1819306873
1.1781563166
1.1581563039
1.1768588519
1.1709105530
1.1648182605
1.1591454478
1.1571018025
1.1844829600
1.1726025850
1.1851436130
1.1665730762
1.2081714029
1.1571405432
1.2007412446
1.1902959428
1.2013374462
1.2213093357
1.1910188216
1.2135787968
1.2076103453
1.2141924361
1.2203327441
1.1606407382
1.1776886009
1.1871865115
1.1708977475
1.2113167799
1.2191546452
1.1579216211
1.2042493816
1.1756211170
1.1936588786
1.2048176928
1.1670414503
1.1656467917
1.1561152327
1.2232908921
1.1943462859
1.1879112227
1.2107428020
1.1791690257
1.1777500110
1.1751205936
1.2214304461
1.1722828464
1.1624241176
1.2183314564
1.1576162925
1.1732523384
1.1746854587
1.1596090728
1.2096553415
1.1633325046
1.1818095459
1.1839213696
1.1673053706
1.1571598860
1.1971766863
1.1690206569
1.1978158457
1.1821365547
1.1785183065
1.1791819153
1.1915491962
1.1569955075
1.1825114527
1.1760351614
1.1807707808
1.1589469467
1.1719315268
1.2070121398
1.1995880139
1.1968818610
1.1842174176
1.1807315011
1.1644132224
1.1864417040
1.1703001971
1.1823273270
1.1580229844
1.1660992795
1.1832184432
1.1805770367
1.1889241422
1.1771435078
1.1784798537
1.1690439649
1.1767589284
1.2055108280
1.1586614171
1.1635467268
1.1985287899
1.1683219926
1.1789722538
1.1786160665
1.1799737304
1.2118117721
1.1630160369
1.1568153714
1.1741687421
1.1575820139
1.2193332148
1.1649659554
1.1884124480
1.1766056547
1.1562729540
1.1700552288
1.1601031479
1.1741459098
1.1731961798
1.1609998856
1.1662576442
1.1590489851
1.1785454548
1.1762256140
1.1708343145
1.2087822280
1.1654725482
1.1769697617
1.2020640017
1.1778287125
1.1745552841
1.1717326817
1.1642415437
1.1692589259
1.1568062028
1.2214305162
1.1797401115
1.1915977543
1.1799747964
1.1549929857
1.1594772790
1.1733740661
1.1567133499
1.2170654408
1.1855314748
1.2026230063
1.1570155124
1.1950043478
1.1725164837
1.1762261460
1.1804939157
1.1826798240
1.2091084349
1.1593567648
1.1956429260
1.1667905061
1.1889653041
1.1819328894
1.1773814411
1.1548840850
1.1889456336
1.2170522903
1.2079661460
1.2051564348
1.1834578591
1.2059663322
1.1578352882
1.1594759581
1.1579779874
1.1639916134
1.2023365500
1.1751268197
1.1964833189
1.1760556268
1.1813678830
1.1534677374
1.2146460506
1.2070156991
1.1942213372
1.1991506715
1.1553308951
1.1696864937
1.2012241818
1.1675273124
1.1627502357
1.1913550710
1.1968852905
1.1842193077
1.1922086549
1.1791818306
1.2192810621
1.1812834975
1.1743980157
1.2023331085
1.1860230068
1.1703722400
1.1956467927
1.1787431224
1.2170522062
1.1685473851
1.1773747274
1.2157123229
1.1949236007
1.1860250013
1.1749350717
1.1760372103
1.1562523538
1.2018407859
1.1634859746
1.1974313053
1.1728394486
1.1798920357
1.1853915346
1.1667989932
1.2026262701
1.1714768561
1.2081756744
1.2091094856
1.1845300638
1.2146458245
1.1991545178
1.2192812096
1.1798928351
1.1834591434
1.1864217379
1.1931522343
1.2178652359
1.1902449236
1.1984070711
1.2029119207
1.1889680531
1.1883742403
1.1941281730
1.1556576886
1.1918758937
1.2051226877
1.1812673726
1.2134531495
1.1798789822
1.1829064476
1.1951390420
1.1617392949
1.1576051920
1.1882888117
1.1969161150
1.1594737866
1.2059685650
1.1828102851
1.1662430749
1.1922120834
1.1762232772
1.1723864534
1.1568042123
1.1915082263
1.1744139301
1.1653808735
1.1725290789
1.1789691393
1.2128810419
1.1802954933
1.1775264021
1.1703722380
1.1862383564
1.1955407955
1.1717246175
1.1675272886
1.1924619506
1.1761185866
1.2050625059
1.1590457080
1.1690311693
1.1778257093
1.1910056265
1.1575810480
1.1858219781
1.1937548763
1.1831601811
1.1935300747
1.1797378554
1.1837198000
1.2151950933
1.1540994939
1.1866223832
1.1811598897
1.1891278423
1.1561516509
1.1988313809
1.1741643597
1.1940016843
1.1898274929
1.1588525187
1.1635336110
1.1780952700
1.1918830014
1.2078792103
1.1613355744
1.1870702149
1.1775267004
1.2020301136
1.1723392678
1.2081776811
1.1915113640
1.1853938310
1.2018440570
1.1552454871
1.1785073508
1.2104787926
1.2157130368
1.1922701412
1.1827451587
1.1573958629
1.2134539008
1.1961617565
1.1898282181
1.1897877964
1.1962299312
1.1829080977
1.1949269682
1.1882915965
1.2051254671
1.1630046282
1.1550954479
1.1672429400
1.1744064020
1.2178661107
1.1925693684
1.1875252025
1.1850671843
1.1537872540
1.1639955717
1.1812678674
1.1933740688
1.1567164650
1.1836487824
1.1936043918
1.2114008254
1.2028992312
1.1774585108
1.1876687571
1.1828425012
1.1984105123
1.1659564594
1.1967277361
1.2139498867
1.2058590405
1.1699293400
1.1600920667
1.1533591325
1.1687878432
1.1730650442
1.1905539187
1.2087008724
1.1998451295
1.1532167919
1.1520574868
1.1845312455
1.1948606099
1.1870508154
1.1941556977
1.1627904079
1.1936904466
1.1960657167
1.1505035724
1.1531550662
1.1886756712
1.1909168640
1.1609109868
1.1930282334
1.1953197339
1.1903039704
1.1566397241
1.1517089371
1.1540647870
1.1933875330
1.1928219868
1.1848057916
1.1870003344
1.1921035318
1.1579210052
1.1550178957
1.1643900851
1.1611194880
1.1749141115
1.1526242144
1.1502863100
1.1795195865
1.1550958487
1.1588020282
1.1781002419
1.1496938265
1.1918785706
1.1526258916
1.1937663170
1.1934173093
1.1500204672
1.1870740635
1.1511932183
1.1512228900
1.1969201000
1.1523267140
1.1944853366
1.1926134728
1.1545102439
1.1526194888
1.2047841828
1.2110799080
1.2107729143
1.2107883475
1.2110979655
1.2120357677
1.2107725924
1.2144809840
1.2138118779
1.2090464041
1.2099631147
1.2084008849
1.2090619254
1.2124420330
1.2140993019
1.2109357908
1.2165654126
1.2138228818
1.2120428105
1.2152389482
1.2165123935
1.2132014964
1.2093546162
1.2124215849
1.2170271333
1.2155739136
1.2110334165
1.2147184020
1.2168765194
1.2137117352
1.2176580500
1.2142346339
1.2135643024
1.2083433788
1.2136606748
1.2108755247
1.2165725656
1.2163688983
1.2152503820
1.2096349789
1.2123803677
1.2092701485
1.2105513787
1.2065038379
1.2003800886
1.2124561553
1.2153914950
1.2091835691
1.1992938641
1.2110365206
1.2155809717
1.2073017950
1.2160040351
1.2151933973
1.2083480458
1.2093603350
1.1975036911
1.2124530527
1.2049939204
1.2142474258
1.2081185703
1.2108990920
1.2109956757
1.1981067584
1.1987090569
1.2136702536
1.2050826995
1.2064303788
1.2075252194
1.2001353154
1.2069476800
1.2076188321
1.2019602045
1.2021396060
1.2091423803
1.2025688559
1.2175230326
1.2004015862
1.1998601740
1.2008179664
1.2105686817
1.2057018706
1.1975033094
1.1763782591
1.1800136610
1.2110152893
1.2049979193
1.2031007584
1.1981228950
1.2054654664
1.2036600529
1.2076133917
1.1986994254
1.2006573152
1.1773101531
1.1806296605
1.1981679868
1.2047059418
1.2036529435
1.1998659672
1.1953452719
1.1940294091
1.2058930859
1.1893588135
1.1935990618
1.2013270483
1.2056568881
1.1921275821
1.2022190733
1.2037810573
1.2025724610
1.1877366897
1.2008191140
1.2000255218
1.1937242592
1.1916042825
1.1889096296
1.1907373864
1.2021647013
1.2056863964
1.1899366239
1.2027559088
1.2175288901
1.1923378973
1.2031068582
1.1987007734
1.1961001843
1.1981807125
1.1831443330
1.1972027803
1.1794782833
1.1755876974
1.2039099124
1.1799956761
1.2020571727
1.1943396301
1.1834894605
1.1961020036
1.1763534624
1.1788677047
1.1876508646
1.1899953411
1.2057115922
1.1853876983
1.1888991798
1.1920797749
1.1948956187
1.1935956932
1.1970483334
1.2038108021
1.1953434339
1.2027570519
1.1976347134
1.2015745130
1.1899840596
1.1921250939
1.1877345874
1.2072580941
1.1941991788
1.1902443965
1.2022440029
1.1917436838
1.1940261298
1.1931463630
1.1955692931
1.1941823363
1.2038068866
1.1850745776
1.1831306959
1.1966495528
1.1973424758
1.1961024137
1.2003913695
1.1972020523
1.1829366457
1.1820350803
1.1831741078
1.1858676888
1.1962183016
1.1679881887
1.1817422649
1.1986079234
1.1985779298
1.1852369886
1.1941118185
1.1958675943
1.1794546085
1.1806103274
1.1842430759
1.1961176651
1.1646950078
1.1942021686
1.1878086256
1.1714152166
1.1853837526
1.1902380909
1.1819406906
1.1976345433
1.1956309135
1.1755123594
1.1948926523
1.1874413498
1.2038342391
1.1784971935
1.1970624529
1.1747497111
1.1923049756
1.1899796244
1.1831675607
1.1646959379
1.1920639078
1.1852347688
1.1941412764
1.1880767040
1.1863841086
1.1986082843
1.2192711433
1.1958658279
1.1858608677
1.1989548200
1.1974023683
1.1807553542
1.1655707049
1.1828725604
1.1900953324
1.1961414925
1.1820175735
1.2198780256
1.1857962841
1.2004111236
1.1784900295
1.1904393497
1.1778166998
1.2189985232
1.1720818204
1.1829056226
1.1774790829
1.1858318982
1.1924444845
1.1722361669
1.1698079659
1.1688703502
1.1791695719
1.1736991570
1.1944363852
1.1811156764
1.1874788185
1.1754804023
1.1687142903
1.1903263869
1.1684149372
1.1784997009
1.1920631935
1.2192727356
1.1863702440
1.1765141270
1.2195055678
1.1745259362
1.1845165449
1.2200032829
1.1884472214
1.1922460847
1.1802874788
1.2212571539
1.1818236673
1.2189985151
1.1698045544
1.1782351746
1.1729513174
1.2178842789
1.1944358568
1.1774680013
1.1877883626
1.2217540473
1.1777910973
1.1713836174
1.2234097340
1.1695544205
1.1828950935
1.1763352598
1.1736868486
1.1905823546
1.2211013578
1.1937458604
1.1811051435
1.1647369201
1.1684102782
1.1764952815
1.2206362671
1.1689348793
1.1693820347
1.1782609791
1.1849959926
1.1784720795
1.1664079754
1.2194702899
1.1760661903
1.1727479850
1.2186685471
1.2193329907
1.1650345412
1.1803682230
1.2178856226
1.2234099835
1.2146297064
1.2223009627
1.1818074764
1.1612850929
1.2211021564
1.2235238215
1.1599975169
1.1833644987
1.1802694997
1.2225961489
1.1714396410
1.2116696071
1.2214100573
1.1922646804
1.1739636625
1.2188824673
1.2167965044
1.1735205321
1.1623465756
1.2230543621
1.1599371423
1.1782568415
1.2184487986
1.1687500417
1.1637785574
1.1841670970
1.1693747780
1.1672194666
1.1672153283
1.1602061272
1.2178454381
1.2207272324
1.1781247736
1.2186715313
1.1810871350
1.2206332473
1.1647351958
1.1937564375
1.1760617459
1.1638087524
1.1733168455
1.1689331579
1.1626507364
1.2218901132
1.1593340429
1.2257642473
1.1865451728
1.2214107922
1.2235231694
1.1658617276
1.1619967559
1.1592963584
1.2103944262
1.1617604618
1.2158995157
1.2239990606
1.1600014158
1.2188850412
1.1833557207
1.2250504056
1.2234766373
1.1660119952
1.1735171715
1.2085088586
1.1755116869
1.2133523640
1.1612867890
1.2249647956
1.2254101392
1.1654114697
1.1614480905
1.2207233645
1.1868894640
1.1637797652
1.2203226703
1.2178480686
1.1841598268
1.2260608857
1.1672194135
1.1594208718
1.2214224519
1.1733131559
1.2037246170
1.1887474041
1.1575568406
1.2071265240
1.2249641623
1.1658632374
1.1617547315
1.2250492529
1.1592964463
1.1755079093
1.1626726291
1.2264379819
1.1619976924
1.1865474557
1.2244845152
1.1579417332
1.1707653238
1.2237824162
1.1649190756
1.2003614248
1.1594183000
1.2257229938
1.1888282172
1.1572578119
1.2260667518
1.2281478761
1.2051978357
1.1578318196
1.1868935206
1.2245925066
1.2287337474
1.2203241522
1.1969949660
1.1574969978
1.1577464018
1.2232142114
1.2264376486
1.2244840792
1.2273276588
1.1594229821
1.1626781627
1.2247456865
1.1625440454
1.2017981931
1.1707615982
1.1572535649
1.1887541653
1.2279492044
1.2282151516
1.1600461702
1.2239525849
1.1936295848
1.1984028603
1.1578739287
1.1572562436
1.2286891948
1.1574958743
1.1582841170
1.1572697214
1.1904347093
1.2277311831
1.1582998419
1.1903092572
1.2244993631
1.2127073073
1.2218175211
1.2179217656
1.1950545372
1.2282155582
1.1914477405
1.2266378473
1.2063339122
1.2215178190
1.2232116571
1.1961181824
1.2271972725
1.2274718082
1.1625511989
1.2228482212
1.2265537584
1.2154700114
1.2203214810
1.1927991092
1.2096067314
1.2225578334
1.1995152402
1.2279498472
1.2271711742
1.2247447846
1.1582805979
1.1895935380
1.1917562936
1.1582847997
1.1715870171
1.2029449629
1.1572688002
1.1776369129
1.1870298456
1.1582378201
1.1652157032
1.1616225743
1.1831739808
1.1882414481
1.1683628511
1.1574126281
1.1747160743
1.1853794873
1.1573348109
1.1623428473
1.1599531955
1.1804649290
1.1981711141
1.2105674398
1.2199620306
1.2262734253
1.2039479795
1.1936329667
1.2215145218
1.1914528982
1.2218145210
1.2257089643
1.1891123347
1.2162462815
1.2230268310
1.2266377641
1.2083120550
1.2192858166
1.2143595184
1.2251633212
1.2015846390
1.2135570023
1.2209636824
1.2274725684
1.2073326513
1.1970187878
1.2235005303
1.1947753371
1.1903877443
1.2186960453
1.2253913679
1.2114564470
1.2203176482
1.2169462127
1.2265547679
1.1739199343
1.2004826770
1.1873320740
1.1851445073
1.1819282328
1.1768799229
1.1852091580
1.1623489813
1.1593988643
1.1581506081
1.1885294160
1.1572240799
1.1614223066
1.1709488857
1.1648311566
1.2049833091
1.1582834796
1.1675020737
1.1797788375
1.1769091756
1.1860807671
1.1837877474
1.1795738339
1.1739846723
1.1871005742
1.1643991191
1.1616294755
1.1572570974
1.1895948779
1.1578813894
1.1598036310
1.1678460005
1.1620876974
1.1707377273
1.1827029412
1.2081687045
1.2181730874
1.2238126163
1.2257087657
1.2213104867
1.2124004477
1.1956988037
1.1867112398
1.2141956063
1.1891130057
1.2176888140
1.2013302963
1.1910164686
1.2060295989
1.2199579866
1.2113174397
1.2191575340
1.2253924131
1.2239450766
1.2152085097
1.1991494744
1.1879115307
1.2167994329
1.1923309975
1.2186914735
1.2048120136
1.1943413313
1.2093143359
1.2220223642
1.1832232234
1.1790500637
1.1805765750
1.1571719530
1.1865236884
1.1644309793
1.1732214961
1.1978090514
1.1670185066
1.1620893708
1.1611784570
1.1580187872
1.1850767041
1.2026150960
1.1760476338
1.1837742678
1.1703331646
1.1593017076
1.1821384082
1.1816533447
1.1785207289
1.1578409870
1.1873296964
1.1617954532
1.1762023737
1.1701259011
1.1640589159
1.1596049929
1.1571589373
1.1839264463
1.1732777283
1.1853716019
1.1673351878
1.1614268005
1.1586653739
1.1766078217
1.1843972008
1.1683290404
1.2101460490
1.2181690720
1.1572482025
1.1596680948
1.1985237472
1.1768028992
1.1884105709
1.2035040693
1.1696184020
1.1630241358
1.1567643231
1.2222036268
1.1930360485
1.1867100066
1.2118128013
1.2055078178
1.2157971189
1.1784804367
1.1785947067
1.1731996521
1.2193341578
1.1739786667
1.1644025726
1.2160970593
1.1601573054
1.1778910289
1.1855308156
1.1704354863
1.2131290088
1.2203027694
1.1565109383
1.1581906006
1.2020594575
1.1755818890
1.1915944661
1.2069121014
1.1675725540
1.1650339892
1.1562558354
1.2239459627
1.1964793017
1.1897559826
1.2145726136
1.2087813223
1.2167955364
1.1794297643
1.1776950083
1.1749955572
1.2222108026
1.1719714512
1.1618833442
1.2170673151
1.1901817085
1.1578337127
1.1829941600
1.1725718000
1.1824224041
1.1608949266
1.1751336378
1.1591506602
1.2079630324
1.2060182949
1.1989233840
1.1640089413
1.1964798056
1.1860828570
1.1813725760
1.1617914604
1.1844773744
1.1849450028
1.1665459940
1.1810963296
1.1571022386
1.1949998409
1.1697089386
1.1999980866
1.1822670131
1.1781500529
1.1903922440
1.1791842633
1.1913521515
1.1570160564
1.1819354353
1.1754735074
1.1811587519
1.1593569708
1.1725316529
1.1611782368
1.2106885625
1.2086712319
1.1982952256
1.1614662685
1.1961049269
1.1845031295
1.1804979803
1.1636973314
1.1850742539
1.1866200954
1.1695561461
1.1826782906
1.1577547972
1.1668140555
1.1835828110
1.1804546815
1.1889430212
1.1773838227
1.1787585833
1.1629151138
1.1684182556
1.1605611121
1.1773741843
1.1768024532
1.1749350532
1.1723802323
1.2076125492
1.1583482306
1.1679887740
1.1629164793
1.1583516159
1.1782739899
1.2007464838
1.1677513943
1.1792378902
1.1785954703
1.1766636272
1.1801115238
1.1756345895
1.2135767135
1.1624302889
1.1567612606
1.1738104475
1.1617426852
1.1677604359
1.1668015357
1.1574185518
1.2203320042
1.1807714200
1.1643961319
1.1902988128
1.1791694633
1.1786154188
1.1556608439
1.1576084747
1.1766606559
1.1714779437
1.1562796137
1.1696142143
1.1596630091
1.1583633229
1.2160943096
1.1843971647
1.1739766879
1.1728876448
1.1568182988
1.1776876401
1.1604859214
1.1655946989
1.1649706080
1.1586881893
1.1782554889
1.1777499479
1.1760484345
1.1703221702
1.2107426275
1.1572454639
1.1660566784
1.1610870699
1.1773880770
1.2042535772
1.1656380663
1.1778935182
1.1795405448
1.1795394740
1.1741370209
1.2145705659
1.1606341549
1.1579177748
1.1712114772
1.1636887473
1.1687873363
1.1568319969
1.2222114606
1.1801541170
1.1741470815
1.1670359345
1.1936632836
1.1801126479
1.1552489635
1.1590676937
1.1751183617
1.1730876548
1.1556098971
1.1719681293
1.1618773148
1.1569247896
1.2183293773
1.1871876059
1.1755801330
1.1708928149
1.2048177260
1.1569951487
1.1613363864
1.1561536375
1.1614586193
1.1971819527
1.2051597375
1.1719104774
1.1961083603
1.1744136135
1.1760722039
1.1807277797
1.1823288401
1.1541015329
1.2136964615
1.2060217160
1.2110333281
1.1589483272
1.1925083591
1.1978305264
1.1567178803
1.1660748308
1.2009243432
1.1692279834
1.1602279556
1.1901846167
1.1995914623
1.1828214972
1.1828232860
1.1908542039
1.1825069645
1.1771395139
1.1549303029
1.1889268539
1.1841295210
1.2181816474
1.2096580805
1.1802962226
1.1754726439
1.2034434383
1.1986648283
1.1848246177
1.2040867788
1.1679637781
1.2080605385
1.1576176715
1.1588536375
1.1575675116
1.1633173834
1.2045186464
1.1746740801
1.1982988561
1.1754848623
1.1818042055
1.1841311405
1.1537897476
1.2160611401
1.2086744222
1.2120057721
1.1608904332
1.1937516702
1.2013777366
1.1550911037
1.1689937412
1.2034470402
1.1666716405
1.1621138963
1.1915522787
1.1989268606
1.1845050471
1.1930744619
1.1942824138
1.1829941383
1.1791798665
1.1542716475
1.1903949628
1.2201905747
1.2106913986
1.2017687819
1.1823754404
1.1736548701
1.2071377248
1.2009206879
1.1876680016
1.1696918943
1.1830407146
1.2136957339
1.1978344723
1.1782746309
1.2181814095
1.1679873239
1.1785461693
1.1823762854
1.1890878081
1.1771725717
1.1930913748
1.2144200503
1.1923001226
1.1573754074
1.1928909041
1.1747245508
1.2019553050
1.1876704410
1.1866741988
1.1747243099
1.1749918494
1.1756350276
1.1940246819
1.1624391413
1.1565078709
1.1787426083
1.1794301419
1.1573717582
1.1906324508
1.1996295526
1.1629125766
1.1650241998
1.1802026430
1.1996891268
1.1787593930
1.2109545121
1.1723799614
1.1722807778
1.1794697219
1.1814092705
1.1601072995
1.1808552383
1.1923031963
1.1571378739
1.1587570518
1.1776951450
1.1662676214
1.1556287491
1.1840970488
1.1971536020
1.1662642997
1.1612240230
1.2048205902
1.1850395575
1.1710941261
1.2061113789
1.2110335202
1.1624181493
1.1853472804
1.2160603240
1.2013814138
1.1796761740
1.2201911640
1.1703213097
1.1794706336
1.1728394430
1.1848261261
1.1872922186
1.1762260028
1.1930786806
1.2168017263
1.1909147468
1.1962450674
1.2004316591
1.1908574425
1.1892079920
1.1767591543
1.1733737037
1.1769703357
1.1934138932
1.1561116154
1.1634877965
1.1562761980
1.1922434770
1.2029439997
1.1654705054
1.1816728250
1.1982988605
1.2118627492
1.1741371517
1.1556316402
1.1796755603
1.1803024124
1.1819078580
1.1937624665
1.1604831197
1.1567103667
1.1867031331
1.1952593779
1.1642383932
1.1583603437
1.2080621175
1.1835317943
1.1692571473
1.2090911428
1.2120059031
1.1655774049
1.1942861842