<VTKFile type="UnstructuredGrid" version="0.1">
	<UnstructuredGrid>
		<Piece NumberOfPoints="1862" NumberOfCells="3498">
			<CellData>
				<DataArray type="Int32" Name="type" NumberOfComponents="1" Format="ascii">
0
0
0
0
0
0
0
0
0
0
0
0
0
0
0
0
1
0
0
1
0
0
0
0
0
0
0
0
0
0
0
0
0
1
0
0
0
0
0
0
0
0
0
0
0
0
0
0
0
0
1
0
0
0
0
0
0
0
0
0
0
1
0
0
0
0
0
0
0
0
0
0
0
0
0
0
0
0
0
0
0
0
0
0
0
0
0
0
0
0
0
0
0
0
0
0
0
0
0
0
0
0
0
0
0
0
0
0
0
0
0
0
0
0
0
0
0
0
0
0
0
0
0
1
0
0
0
0
0
0
0
0
0
0
0
0
0
0
0
0
0
0
0
0
0
0
0
0
0
0
0
1
0
1
1
0
0
0
0
0
0
0
0
0
0
0
0
0
1
0
1
0
0
0
0
1
0
0
0
0
0
0
0
0
1
1
0
0
0
0
0
1
0
0
0
0
0
0
0
0
1
0
0
0
0
0
0
0
0
0
0
0
0
0
0
0
0
0
0
0
0
0
0
0
0
0
0
0
0
0
0
0
0
1
0
0
0
0
0
0
0
0
0
0
0
0
0
0
0
0
0
0
0
0
0
0
0
0
0
0
0
0
0
0
0
0
0
0
0
0
0
0
0
0
0
0
0
0
0
0
0
1
0
0
0
0
0
0
0
0
0
0
0
0
0
0
0
0
0
0
0
0
0
0
0
0
0
0
0
0
0
0
0
0
0
0
0
0
0
0
0
0
0
0
0
0
0
0
0
0
0
0
1
0
0
0
0
0
0
0
0
0
0
0
0
0
0
0
0
0
0
0
0
0
0
0
0
0
0
0
0
0
0
0
0
0
0
0
0
0
0
0
0
0
0
0
0
0
0
0
0
0
0
0
0
0
0
0
0
0
1
0
0
0
0
0
0
0
0
0
0
0
0
0
0
0
0
0
0
0
0
0
0
0
0
0
0
0
0
0
0
0
0
0
0
0
0
0
0
0
0
0
0
0
0
0
0
0
0
0
0
0
0
0
0
0
0
0
0
0
0
0
0
0
0
0
0
0
0
0
0
0
0
0
0
0
0
0
0
0
0
0
0
0
0
0
0
0
0
0
0
0
0
0
0
0
0
0
0
0
0
0
0
0
0
0
0
0
0
0
0
0
0
0
0
0
0
0
0
0
0
0
0
0
0
0
0
0
0
0
0
0
0
1
0
0
0
0
0
0
0
0
0
0
0
0
0
0
0
0
0
0
0
1
0
0
0
0
0
0
0
0
0
0
0
0
0
0
0
0
0
0
0
0
0
0
0
0
0
0
0
0
0
0
0
0
0
0
0
0
0
0
0
0
0
0
0
0
0
0
0
0
0
0
0
0
0
1
0
0
0
0
0
0
0
0
0
0
0
0
0
0
0
0
0
0
0
0
0
0
0
1
0
0
0
0
0
0
0
0
0
0
0
0
0
0
0
0
0
0
0
1
0
0
0
1
0
0
0
0
0
0
0
0
0
0
0
0
0
0
0
0
0
0
0
0
0
0
0
0
0
1
0
0
0
0
0
0
0
1
0
0
0
0
0
0
0
0
0
0
0
0
0
0
0
0
0
0
0
0
0
0
0
0
0
0
1
0
0
0
0
0
0
0
1
0
0
0
0
0
0
1
0
0
0
0
0
0
0
0
0
0
0
0
0
0
0
0
0
0
0
0
0
0
0
0
0
0
0
0
0
0
0
0
0
0
0
0
0
0
1
0
0
0
0
0
1
0
0
0
0
0
0
0
1
0
0
0
0
0
0
0
0
0
0
0
0
0
1
0
0
0
0
0
0
0
0
0
0
0
0
0
0
0
0
0
0
0
0
0
0
0
0
0
0
0
0
0
0
0
0
0
0
0
0
0
0
0
0
0
0
0
0
0
0
0
0
0
0
0
0
0
1
0
0
0
0
0
0
0
0
0
0
0
0
0
0
0
0
0
0
0
1
0
0
0
0
0
0
0
0
0
1
0
0
0
0
0
0
0
0
0
0
0
0
0
0
0
0
0
0
0
0
0
0
0
0
0
0
0
0
0
1
0
1
0
0
0
0
0
0
0
0
0
0
0
0
0
0
0
0
0
0
0
0
0
0
0
0
0
0
0
1
0
0
0
1
0
0
0
0
0
0
0
0
0
0
0
0
0
0
0
0
0
0
0
0
0
0
0
0
0
0
0
0
1
0
0
0
0
0
0
0
0
0
0
0
0
0
0
0
0
0
0
0
0
0
0
0
0
0
1
0
0
0
0
0
0
0
0
0
0
0
0
0
0
0
0
0
0
0
0
0
0
0
1
0
0
0
0
0
0
1
0
0
0
0
0
0
0
0
0
0
0
1
0
0
0
0
0
0
0
0
0
0
0
0
0
0
0
0
0
0
0
0
1
0
0
0
0
0
0
0
0
0
0
0
1
0
0
0
0
0
0
0
0
0
0
0
0
0
0
0
0
0
0
0
0
0
1
0
0
0
0
0
0
0
0
0
1
1
0
1
0
1
0
0
0
0
0
0
0
0
0
0
0
1
0
0
0
0
0
1
1
0
0
0
0
0
0
1
0
0
0
0
0
1
1
1
0
0
0
0
0
0
0
0
0
0
0
0
1
1
0
0
1
0
0
0
0
0
1
0
0
0
1
0
1
0
0
0
0
0
0
0
1
0
0
0
0
0
0
0
1
0
0
1
0
0
0
0
0
0
0
0
0
0
0
0
0
0
0
1
0
0
0
0
0
0
0
0
0
0
0
0
0
0
0
0
0
0
0
0
0
0
0
0
0
0
0
0
0
0
0
0
0
0
0
0
1
0
0
0
0
0
0
1
0
0
0
1
0
0
0
0
0
0
0
0
0
0
0
1
0
0
0
0
0
0
0
0
0
0
0
0
0
0
0
0
0
0
0
0
0
0
0
0
0
0
0
0
0
0
0
0
0
0
0
0
0
0
0
0
1
1
0
0
0
0
0
0
0
0
0
0
0
0
0
1
0
0
0
0
0
0
0
0
0
0
0
0
0
0
0
0
0
0
0
0
0
0
0
0
0
0
0
0
0
0
0
0
0
0
0
0
0
0
0
0
0
0
0
0
0
0
0
0
0
0
0
0
0
0
0
0
0
0
0
0
0
0
0
0
0
0
0
0
0
0
0
0
1
1
0
0
0
0
0
0
0
0
1
0
0
0
0
0
0
0
0
0
0
0
0
0
0
0
0
0
0
0
0
0
0
0
1
0
0
0
0
0
0
0
0
0
0
0
0
0
0
0
0
1
0
0
0
0
0
0
0
0
0
0
0
0
0
0
0
0
0
0
0
0
0
0
0
0
0
0
0
0
0
0
0
0
0
0
0
0
0
0
0
0
0
0
0
0
0
0
0
0
0
0
0
0
0
0
0
0
0
0
0
0
0
0
0
0
0
0
0
0
0
0
0
0
0
0
0
0
0
0
0
0
0
0
0
0
0
0
0
0
0
0
1
1
0
0
0
0
0
1
0
0
0
0
0
0
0
0
0
0
0
0
1
0
0
0
0
0
0
0
0
0
0
0
0
0
0
0
0
0
0
0
0
0
0
0
0
0
0
0
0
0
0
0
0
0
0
0
0
0
0
0
0
0
0
0
0
0
0
0
0
0
0
0
0
0
1
0
1
0
0
0
0
0
0
0
0
0
0
0
0
0
0
0
0
0
0
1
0
0
0
0
0
0
0
0
0
0
0
0
0
0
0
0
0
0
0
0
0
0
0
0
0
0
0
0
0
0
0
0
0
0
0
0
0
0
0
0
0
0
0
0
0
0
0
0
0
0
0
0
0
0
0
0
0
0
0
0
0
0
0
0
0
0
0
0
0
0
1
0
0
0
0
0
0
0
0
0
0
1
0
0
0
0
0
0
0
0
0
0
0
0
0
0
0
0
0
0
0
0
0
0
0
0
0
0
0
0
0
0
0
0
0
0
0
0
0
1
0
0
0
0
0
0
0
0
0
0
0
0
0
0
0
0
0
0
0
0
0
0
0
0
0
0
0
0
0
0
0
0
0
0
0
0
0
0
0
0
0
0
0
0
0
0
0
0
0
0
0
0
0
0
0
0
0
0
0
0
0
0
0
0
0
0
0
0
0
0
0
0
0
0
0
0
0
0
0
0
0
1
0
0
0
0
0
0
0
0
0
0
0
0
0
0
0
0
0
0
0
0
0
0
0
0
0
0
0
0
0
0
0
0
0
0
0
0
0
0
0
0
0
0
0
0
0
0
0
0
0
0
0
0
0
0
0
0
0
0
0
0
0
0
0
0
0
0
0
0
0
0
0
0
0
0
0
0
0
0
0
0
0
0
0
0
0
0
0
0
0
0
0
0
0
0
0
0
0
0
0
0
0
0
0
0
0
0
0
0
0
0
0
0
0
0
0
0
0
0
0
0
0
0
0
1
0
0
0
0
0
0
0
0
0
0
0
0
0
0
0
0
0
0
0
0
0
0
0
0
0
0
0
0
0
0
0
0
0
0
0
0
0
0
0
0
0
0
0
0
0
0
0
0
0
0
0
0
0
0
0
0
0
0
0
0
0
0
0
0
0
0
0
0
0
0
0
0
0
0
0
0
0
0
0
0
0
1
0
0
0
0
0
0
0
1
0
0
0
0
0
0
0
0
0
0
0
0
0
0
0
0
0
0
0
0
0
0
0
0
0
0
0
0
0
0
0
0
0
0
0
0
0
1
0
0
0
0
0
0
0
0
0
0
0
0
0
0
0
0
0
0
0
0
0
1
0
0
0
0
0
0
0
0
0
0
0
0
1
1
0
0
0
0
0
0
0
0
0
0
0
0
0
0
0
1
1
0
1
0
0
0
0
0
0
0
0
0
1
0
0
0
0
0
0
1
0
0
0
0
0
0
0
0
0
0
1
0
0
0
0
1
0
1
0
0
0
0
0
0
0
1
0
0
0
1
0
0
0
1
0
1
1
0
0
1
1
0
0
0
1
0
0
0
1
0
0
0
0
0
0
0
0
0
1
0
0
0
0
0
0
1
0
0
0
0
0
0
0
0
0
0
0
0
0
0
0
0
0
0
0
0
0
0
0
0
0
0
0
1
0
0
1
0
0
0
0
0
0
0
0
0
0
0
0
0
0
0
0
0
0
1
0
0
1
0
0
0
0
0
0
0
0
0
0
0
1
0
0
1
0
0
0
0
0
0
0
0
0
0
0
1
1
0
0
0
0
0
0
0
0
0
0
0
0
1
0
0
0
0
0
0
0
0
0
0
0
0
0
0
0
0
0
1
0
0
0
0
0
0
0
0
0
0
0
0
0
0
0
0
0
1
0
0
0
0
0
0
0
0
0
0
0
0
0
0
0
0
0
0
0
0
0
0
0
0
0
0
0
0
0
0
0
0
0
0
0
0
0
0
0
0
1
0
0
0
0
0
0
0
0
0
0
0
0
0
0
0
0
0
0
0
0
0
0
0
0
0
0
0
0
0
0
0
0
0
0
0
0
0
0
0
0
0
0
0
0
0
1
0
0
0
0
0
0
0
0
0
0
0
0
0
0
0
0
0
0
0
0
0
0
0
0
0
0
0
0
0
0
0
0
0
0
0
0
0
0
0
0
0
0
0
0
0
0
0
1
0
0
0
0
0
0
0
0
0
0
1
0
0
0
0
0
0
0
0
0
0
0
0
0
0
0
1
0
0
1
0
0
0
0
0
0
0
0
0
0
0
0
0
0
0
0
0
0
0
0
0
0
0
1
0
0
0
0
0
0
0
0
0
0
0
0
0
0
0
0
0
0
0
0
0
0
0
0
0
0
0
0
0
0
0
0
0
0
0
1
0
0
0
0
0
0
0
0
0
0
0
0
0
0
0
0
0
0
0
0
0
0
0
0
0
0
0
0
0
0
0
0
0
0
0
0
0
0
0
0
0
0
0
0
0
0
0
0
0
0
0
0
0
0
0
0
0
0
0
0
0
0
0
0
0
0
0
0
0
0
0
0
0
0
0
0
1
0
0
0
0
0
0
0
0
0
0
0
0
0
0
0
0
0
0
0
0
0
0
0
0
0
0
0
0
0
0
0
0
0
0
0
0
0
0
0
1
0
0
0
0
0
0
0
0
0
0
0
0
1
1
0
0
0
0
0
0
0
0
0
0
0
0
0
0
0
0
0
0
0
0
0
0
0
0
0
0
0
0
0
0
0
0
0
0
0
0
0
0
0
0
0
0
0
0
0
0
0
0
0
0
0
0
0
0
0
0
0
0
0
0
0
0
0
0
0
0
0
0
0
0
0
0
0
0
0
0
0
0
0
0
0
0
0
0
0
0
0
0
0
0
0
0
0
0
0
0
0
0
0
0
0
1
0
1
0
0
0
0
0
0
0
1
1
1
1
0
0
0
0
0
0
0
0
0
0
0
0
0
0
0
0
0
0
0
0
0
0
0
0
0
0
0
0
1
1
0
0
0
0
0
0
0
0
0
0
0
0
0
0
0
0
0
0
1
0
0
0
0
0
0
0
1
1
0
1
1
0
0
1
0
0
0
0
0
0
0
1
0
1
0
0
0
0
0
0
0
0
0
0
0
0
0
0
0
0
0
0
0
0
0
0
0
0
0
0
0
1
1
0
0
0
1
1
0
0
0
0
1
0
0
1
0
1
0
0
0
0
0
1
0
0
0
1
0
0
0
0
0
0
0
0
0
0
0
0
0
0
0
0
0
0
0
0
0
0
0
0
0
0
0
1
0
0
0
0
0
0
1
0
0
0
0
0
0
0
0
0
0
0
0
0
0
0
0
0
0
0
0
0
0
0
0
0
0
0
0
0
1
0
1
0
0
0
0
0
0
0
1
0
0
0
0
0
0
0
0
0
0
0
1
0
0
0
0
0
0
0
0
0
1
0
0
0
0
0
0
0
1
0
0
0
0
0
0
0
1
0
0
0
0
0
0
0
0
0
0
0
0
0
0
0
0
0
0
0
1
0
1
0
0
0
0
0
1
0
0
0
0
0
0
0
0
0
0
0
0
0
0
0
0
0
0
0
0
0
0
0
0
0
1
0
1
0
0
0
0
0
0
0
0
0
1
0
0
0
0
0
1
0
0
0
0
0
0
0
0
0
0
0
0
0
0
0
1
0
0
0
0
0
0
0
0
1
0
0
0
0
0
0
0
0
0
0
0
0
0
0
0
0
0
0
0
0
0
0
0
0
0
0
0
0
0
0
1
0
0
0
0
0
0
0
0
0
0
0
0
0
0
0
0
1
0
0
0
0
0
0
0
0
1
0
0
0
0
0
0
0
0
0
1
0
0
0
0
0
1
0
0
0
0
0
0
0
0
0
0
0
0
0
0
0
0
0
0
0
1
0
0
0
0
0
0
1
0
0
0
0
0
0
0
0
1
0
0
0
0
0
0
0
0
0
0
0
0
0
0
1
0
0
1
0
0
0
1
0
0
0
0
0
0
0
0
0
0
0
0
0
0
0
0
1
0
0
0
0
0
0
0
0
0
0
1
0
1
0
0
0
0
0
0
1
0
0
0
0
0
0
0
0
0
0
0
0
0
0
0
0
0
0
0
0
0
0
0
0
0
0
0
1
1
0
0
0
0
0
0
1
0
0
0
0
0
0
0
0
0
0
0
0
0
1
0
0
0
0
0
0
0
1
0
0
0
0
0
0
0
0
0
0
0
0
0
0
0
0
0
0
0
0
0
0
0
0
0
0
0
1
0
0
0
0
0
0
0
0
0
0
1
0
0
1
0
0
0
0
0
0
0
0
0
0
0
0
0
0
0
0
0
0
0
0
0
0
0
0
0
0
0
0
0
1
0
0
0
0
0
0
0
1
0
0
0
0
0
0
0
1
0
0
0
0
1
0
0
0
0
0
0
0
0
0
0
0
1
0
1
0
0
0
1
0
				</DataArray>
				<DataArray type="Float64" Name="h" NumberOfComponents="1" Format="ascii">
1.2143934101
1.2143751443
1.2203511497
1.2144305136
1.2211895907
1.2200695584
1.2172994141
1.2118649191
1.2166087405
1.2075791769
1.2128451638
1.2183967128
1.2106083900
1.2104801505
1.2120888447
1.2060444604
1.2159028890
1.2077458428
1.2133663744
1.2115648197
1.2225691169
1.2106347694
1.2169841080
1.2239832945
1.2138562715
1.2049601436
1.2124893895
1.2268998448
1.2209563097
1.2087715875
1.2097747440
1.2181457231
1.2093171563
1.2206146111
1.2312481642
1.2247721655
1.2269146579
1.2167544804
1.2256839894
1.2243522841
1.2219176825
1.2290977816
1.2139827752
1.2210617603
1.2255335291
1.2252525421
1.2181273001
1.2332813874
1.2446368272
1.2440162338
1.2251838256
1.2251267064
1.2222739312
1.2366705781
1.2288300000
1.2130963425
1.2264497821
1.2363269070
1.2373725293
1.2361772513
1.2396202624
1.2386793755
1.2436715435
1.2262043813
1.2221135161
1.2309796714
1.2430584838
1.2428734525
1.2386713794
1.2375269146
1.2374667685
1.2301010598
1.2157486572
1.2382565324
1.2377489337
1.2259653284
1.2363343416
1.2396056709
1.2347788677
1.2267127998
1.2411343471
1.2332620154
1.2464894281
1.2416822274
1.2225234729
1.2301337909
1.2418169735
1.2401085463
1.2402869268
1.2467245215
1.2422902977
1.2273019668
1.2403890241
1.2467404698
1.2338100784
1.2312264547
1.2380442349
1.2238564064
1.2276157193
1.2417926738
1.2462482192
1.2412548089
1.2368283802
1.2346865544
1.2038741423
1.2420752834
1.2342162142
1.2452612468
1.2394956140
1.2346210272
1.2460668455
1.2462993722
1.2415296257
1.2428113860
1.2390075472
1.2439658415
1.2373806992
1.2059709798
1.2439736891
1.2406708832
1.2041963773
1.2384712497
1.2299768759
1.2024275141
1.2420506054
1.2449646439
1.2393738590
1.2018743525
1.2435938386
1.2443391098
1.2433854816
1.2351962797
1.2409085311
1.2440369814
1.2053382263
1.2434609486
1.2023979641
1.2441114229
1.2424591379
1.2057503821
1.2016817156
1.2034979631
1.2435350306
1.2084526327
1.2313123190
1.2427672217
1.2036122661
1.2450422557
1.2028623068
1.2449756101
1.2011515006
1.2442249323
1.2441590145
1.2443898598
1.2418858747
1.2444362430
1.2450751819
1.2022866710
1.2447572709
1.1999894517
1.2062404494
1.2446831177
1.2019934169
1.2004897404
1.2021778137
1.2449884976
1.2113292503
1.2040631816
1.2009287653
1.2443291908
1.2448629671
1.2000738701
1.2447004050
1.2019329794
1.2117156059
1.2454905583
1.2088326968
1.2458096958
1.2455978016
1.2005091884
1.2445571170
1.2148075014
1.1997537167
1.2313394038
1.1992546980
1.2001336183
1.2143972136
1.2451212289
1.2007076594
1.2006252829
1.2181351890
1.2455545231
1.1996600566
1.2176976292
1.2455728759
1.2457540347
1.2001637211
1.2218792841
1.2212009363
1.2453475664
1.2003706426
1.2345156541
1.2003363808
1.2451042878
1.2262269413
1.1990697093
1.2028920181
1.2002647789
1.2251224361
1.2071185921
1.2159601108
1.2000166124
1.1997985606
1.1997437413
1.2014057951
1.2197033112
1.2047993575
1.1990944055
1.2126772047
1.1993739781
1.2296781147
1.2479968900
1.2097398298
1.2471298762
1.2363132529
1.2459755366
1.2474538269
1.2436464714
1.2312743405
1.2478390833
1.2452942587
1.2478061868
1.2404655460
1.2456198453
1.2464389113
1.2457433634
1.2163675896
1.2015540834
1.1999537444
1.2052718527
1.2138531088
1.1992036039
1.1985329315
1.2072320362
1.2001551076
1.2029772826
1.1992239141
1.2128847934
1.2002295479
1.1983464929
1.2032315208
1.2104964584
1.1991494742
1.2204855556
1.2179153840
1.1992847011
1.2049150508
1.2013744961
1.1997458589
1.2482940955
1.2076738128
1.2369317516
1.2451602143
1.2491479257
1.2394215073
1.2469828875
1.2471044011
1.2292766864
1.2459699129
1.2501135562
1.2493069186
1.2098789956
1.2485082565
1.2456080418
1.2473722417
1.2311560088
1.2416140285
1.2476030792
1.2499382721
1.2348311650
1.2481173424
1.2464763268
1.2464444928
1.2478346379
1.2498540074
1.2486136007
1.2429892238
1.1997178981
1.1985141938
1.1976547463
1.2013884422
1.2142897158
1.1978062686
1.1990075337
1.2029361852
1.2113892859
1.2051468265
1.1986142045
1.1972645700
1.1992866110
1.1984700947
1.2000316922
1.2106074979
1.2158702046
1.2188448311
1.2011511866
1.2078833780
1.2030850075
1.1982172211
1.2376521083
1.2474403817
1.2470651707
1.2470379546
1.2288023636
1.2516241049
1.2504888277
1.2051307034
1.2507076840
1.2486967525
1.2076143916
1.2516245440
1.2404381564
1.2526801504
1.2486161386
1.2430137559
1.2445050322
1.2498752045
1.2478017558
1.2493974655
1.2508664595
1.2501837994
1.2496963999
1.2477849469
1.2310484951
1.2525033659
1.2351809947
1.2523300128
1.1993332644
1.2565827157
1.2001609944
1.2086982424
1.2026147788
1.1974669997
1.2119321783
1.1959950803
1.1974227453
1.1974263710
1.1964064546
1.2619607791
1.2470641440
1.2137537482
1.2636464692
1.1982139234
1.1969889578
1.2624274141
1.1986158772
1.2568050018
1.2049328257
1.2007912382
1.2674489486
1.2642272943
1.2600989330
1.1984712910
1.2079708718
1.2170523155
1.1965561645
1.2301957512
1.2437820553
1.2584762613
1.1972691397
1.2656489921
1.2677867920
1.1958391718
1.2507825664
1.2531330859
1.2545411613
1.2507273890
1.1878158433
1.2544434948
1.2385231086
1.2283681453
1.2533630189
1.2485755737
1.2021792589
1.2557269618
1.2049366694
1.2416464308
1.2496872003
1.2492893198
1.1884412917
1.2495769427
1.2310893071
1.2518994968
1.2178319018
1.2520589535
1.2555379951
1.1855578301
1.1851361254
1.1858974032
1.2003654827
1.2446388277
1.2527173944
1.1947245707
1.2535611919
1.2081457904
1.2496382470
1.2553007115
1.2356167798
1.2463215651
1.1909045692
1.2525305862
1.2390895421
1.2603759190
1.2499284803
1.1968538878
1.2602393139
1.2593102314
1.1997032084
1.2643917831
1.2448167343
1.2327675020
1.2212176001
1.1954111126
1.2633506059
1.2623692930
1.2581362571
1.2548731337
1.1960623426
1.2686317903
1.2095040244
1.2536042456
1.2646440866
1.2677831371
1.2663458378
1.2620558841
1.2617551967
1.2772099305
1.2601529674
1.2565134596
1.2367189560
1.2532686850
1.2737576508
1.1959679291
1.2763534540
1.2501397948
1.1980663734
1.2508266691
1.2639565050
1.2597760059
1.2732212304
1.2720641160
1.2531948284
1.1972695679
1.2372970327
1.2051197515
1.2212193464
1.2692065600
1.2710562913
1.2658602504
1.2717404274
1.1954044602
1.2153586313
1.1940119981
1.2506158908
1.2019517713
1.2562416578
1.2552250252
1.2430750441
1.2067938289
1.1930183372
1.2533494580
1.1965980232
1.2565098428
1.2023871433
1.2282004032
1.2522922756
1.2768725837
1.1899472152
1.1942825953
1.1868386939
1.1857456608
1.2141651538
1.1933863007
1.2519841633
1.2860110031
1.2807052891
1.2557538703
1.1849745898
1.2548296677
1.1834971250
1.2594311848
1.2362465816
1.2795166061
1.1934391909
1.1855606746
1.1868655632
1.1950379019
1.2837823077
1.2567358922
1.1829077055
1.2836386066
1.2822083227
1.1874645559
1.1859006789
1.2003666260
1.1989121959
1.2484244128
1.1956749518
1.2227299633
1.2692191769
1.1849717199
1.2073938950
1.2774922057
1.1966018452
1.2398410598
1.1942825819
1.2763146794
1.2450278522
1.1927983541
1.1939101610
1.2073970400
1.2603569547
1.2566303546
1.2582279879
1.1913845848
1.2778240104
1.1784180804
1.2696917275
1.2276145452
1.2041170214
1.2731571323
1.1940150349
1.2697179781
1.1912021132
1.1930196091
1.2058216836
1.1934392705
1.1950416505
1.1956751059
1.2276154502
1.2141686680
1.1994722995
1.1855305495
1.1943279177
1.1908980941
1.1925926950
1.1822197938
1.2023902986
1.1946023031
1.1830723834
1.2693921809
1.1881026202
1.1909688603
1.2232380622
1.1918827014
1.2336619522
1.2109117786
1.1808008759
1.2724677243
1.2691512296
1.1992368170
1.1795142796
1.2710582471
1.1933883497
1.2137663738
1.2601495576
1.1989156718
1.2552251671
1.2758121266
1.2531961765
1.1959798246
1.2670507431
1.2817615218
1.2731600706
1.2448226625
1.1904542628
1.2286882591
1.2516862944
1.2774953084
1.1975913394
1.1898480923
1.2597707540
1.2836416580
1.1745062620
1.2621687789
1.1882548118
1.2565161148
1.2603702307
1.2508302754
1.1810552100
1.2548757153
1.2069598260
1.1857423855
1.2156490283
1.1870584588
1.2373038451
1.2033643322
1.1921389892
1.2794944691
1.1936972105
1.2164867197
1.1937161422
1.2790330019
1.1887281395
1.2581329431
1.1915310665
1.2008843370
1.2843666204
1.2593091902
1.1605430345
1.1973401768
1.1887846065
1.2848180458
1.1741553976
1.2516869216
1.1883060665
1.2772801096
1.1912039420
1.1959827640
1.2041198979
1.1913880182
1.2668446747
1.2442836739
1.1893970549
1.1927989212
1.1912977093
1.1690405773
1.2913254699
1.1918833707
1.1924946181
1.2008844828
1.1789914169
1.1957697655
1.2109148410
1.1939134597
1.1992396098
1.1909715301
1.2898488402
1.2909904466
1.2861059917
1.2700717895
1.1943287252
1.1998912268
1.2045725333
1.1995206806
1.2769889185
1.2844563044
1.2232385196
1.1941214250
1.2832584947
1.1684711790
1.1896972500
1.1896176997
1.1877398380
1.1600796348
1.1947293131
1.2063605563
1.1925963174
1.2876687885
1.1885693292
1.1913135972
1.1879208630
1.2825674027
1.2910036894
1.2901174305
1.2842232440
1.1570037215
1.1916202730
1.1884989729
1.1879346947
1.2865403810
1.2868963770
1.2058222623
1.1983448858
1.2026926578
1.1867780998
1.2910137735
1.1858812410
1.1919836173
1.2944281585
1.2944258267
1.1918773801
1.1916086693
1.2928417410
1.1919871242
1.1943352411
1.1788247475
1.2946244686
1.2938680453
1.2953165421
1.1883017103
1.1841137209
1.1705109018
1.1751814779
1.1836083832
1.2940350337
1.2956522550
1.2882686424
1.2916500598
1.1562919810
1.2966961737
1.2975086805
1.1650816654
1.2909858491
1.2895885982
1.1605461797
1.2979542486
1.1881043770
1.2932821157
1.1797814187
1.1825934313
1.2975995579
1.1741584137
1.2961344199
1.2910752845
1.1795175226
1.2887504395
1.1764954575
1.1733110805
1.2880814254
1.2845328773
1.1836171936
1.2164819866
1.2174219539
1.2174064648
1.2164587393
1.2168253127
1.2183989680
1.2128485660
1.2137046842
1.2206165359
1.2200779132
1.2211797548
1.2206010237
1.2165974622
1.2120982367
1.2173067089
1.2093457959
1.2136993711
1.2168206785
1.2105522771
1.2077470851
1.2144296333
1.2203463100
1.2133915548
1.2087714306
1.2072596548
1.2182153987
1.2118578798
1.2049581277
1.2138549220
1.2075796308
1.2100077970
1.2105967671
1.2226169430
1.2071081469
1.2143348124
1.2093448086
1.2097725135
1.2105448126
1.2206124976
1.2093296261
1.2181784862
1.2099897035
1.2243561200
1.2238294536
1.2159065665
1.2060437882
1.2140177537
1.2257204224
1.2182150069
1.2072575679
1.2219379085
1.2104806455
1.2115696637
1.2226145920
1.2169441568
1.2333779707
1.2106163428
1.2269636772
1.2099944037
1.2225686165
1.2143049664
1.2132138670
1.2294920963
1.2332804299
1.2071046854
1.2255411038
1.2251820586
1.2181725009
1.2268619265
1.2239769799
1.2209264815
1.2264777076
1.2214961034
1.2124642757
1.2288139600
1.2068650088
1.2237892379
1.2302097385
1.2310765210
1.2099748558
1.2223093414
1.2333787850
1.2448766061
1.2428602593
1.2131814411
1.2269628009
1.2284770342
1.2294708945
1.2247601705
1.2221610484
1.2167081777
1.2322763794
1.2312491352
1.2436666651
1.2428632739
1.2305010680
1.2269150298
1.2262193144
1.2302029531
1.2354077615
1.2358103690
1.2210157026
1.2382511979
1.2355605317
1.2301051078
1.2157813973
1.2375691172
1.2191542554
1.2205770907
1.2288126259
1.2396553707
1.2310776742
1.2290874018
1.2363327536
1.2374652618
1.2386576722
1.2377455338
1.2214524087
1.2175695273
1.2386706274
1.2293970609
1.2068653603
1.2375264026
1.2284736888
1.2322762448
1.2299683018
1.2304857314
1.2417981384
1.2334243078
1.2441668514
1.2446441775
1.2251050058
1.2428689410
1.2252157043
1.2332729612
1.2416714850
1.2327791212
1.2448867817
1.2440288891
1.2396201715
1.2386791578
1.2175242304
1.2404784562
1.2386624444
1.2373747351
1.2353199283
1.2355614559
1.2230300858
1.2164138245
1.2354096396
1.2293987565
1.2324599134
1.2288230548
1.2385925918
1.2375697177
1.2396553530
1.2130704231
1.2340786989
1.2380466755
1.2191236349
1.2366697629
1.2358121921
1.2361788480
1.2273245316
1.2363283744
1.2205292895
1.2403889649
1.2418065683
1.2346854256
1.2276448871
1.2327742829
1.2196911875
1.2334235028
1.2412558820
1.2432031786
1.2413071351
1.2404017827
1.2309600289
1.2462467167
1.2430723568
1.2330073429
1.2238919605
1.2405155181
1.2312455706
1.2336376680
1.2441821740
1.2417940680
1.2420638786
1.2299461714
1.2460270503
1.2340705419
1.2394934659
1.2462908450
1.2404784372
1.2380494778
1.2415281886
1.2324581002
1.2259501146
1.2464263198
1.2353216977
1.2396069719
1.2163839956
1.2422651552
1.2230129657
1.2460516122
1.2346334156
1.2385935367
1.2413072995
1.2460240630
1.2360615619
1.2405145229
1.2301166782
1.2384706016
1.2399733764
1.2330085105
1.2050950782
1.2336351172
1.2404076943
1.2224996689
1.2266848186
1.2418155056
1.2464884310
1.2411331245
1.2373832937
1.2347801934
1.2432198851
1.2041920659
1.2401156490
1.2196662066
1.2422634178
1.2352054575
1.2454494643
1.2033755408
1.2449627995
1.2412367121
1.2427676933
1.2402895671
1.2337981777
1.2467517597
1.2443418817
1.2467293430
1.2422891693
1.2441656936
1.2361775666
1.2420452862
1.2393685688
1.2464436794
1.2443425563
1.2368259058
1.2450528384
1.2457083531
1.2360591437
1.2050990917
1.2399775189
1.2435423342
1.2053358349
1.2434630741
1.2409026320
1.2038782923
1.2380455937
1.2313239267
1.2443660331
1.2034952233
1.2419215856
1.2033807013
1.2443386302
1.2428127554
1.2452652941
1.2034222848
1.2361779073
1.2427679239
1.2390118009
1.2028590006
1.2454689337
1.2435384819
1.2016472894
1.2439610986
1.2412388857
1.2427702080
1.2441657310
1.2342090846
1.2039928920
1.2268754744
1.2444721237
1.2445637921
1.2450506173
1.2435455571
1.2011657253
1.2437596897
1.2453526036
1.2423127987
1.2406779793
1.2457292754
1.2442283262
1.2059730362
1.2428259250
1.2439723176
1.2068586913
1.2011434689
1.2441630431
1.2418879217
1.2034303153
1.2016496473
1.2040609580
1.2021737966
1.2419285952
1.2446382452
1.2039956520
1.2011781200
1.2450892863
1.2425007974
1.2443859582
1.2024299263
1.2435901832
1.2062444830
1.2029757691
1.2299680422
1.2433826219
1.2062210900
1.2019857267
1.2431424262
1.2446876234
1.2018771359
1.2447612293
1.2423102500
1.2024088494
1.2440332270
1.2443717189
1.2417327345
1.2453517264
1.2441217402
1.2441069538
1.2447037119
1.2077894779
1.2022208726
1.2424567054
1.2068607252
1.2444906702
1.2011718522
1.2445600561
1.2268660821
1.2428230204
1.2443335292
1.2433525452
1.2437558918
1.2448661991
1.2019293860
1.2449715896
1.1997523102
1.2396146481
1.2029800303
1.2011807588
1.2452899131
1.2444023260
1.2449355700
1.2084411367
1.2450378932
1.2036155915
1.2005068091
1.2450854814
1.2062238235
1.2425109687
1.2000584441
1.2016850073
1.2445616036
1.2431390647
1.2088444527
1.2429157570
1.2057481900
1.2446339218
1.2004515854
1.2007059833
1.2444312105
1.2450716767
1.2022245400
1.2385847636
1.2443672968
1.2047056343
1.2077934151
1.2417428372
1.1992535971
1.2441169813
1.2443861218
1.2022900371
1.2433492492
1.2144164250
1.2357672606
1.2455754324
1.2113108196
1.2004536952
1.2452861498
1.2457584868
1.2000599945
1.2449319412
1.2429128151
1.2451565485
1.1999043650
1.2443981992
1.2396173368
1.2004067676
1.2455574552
1.2436489983
1.2004920416
1.2449839795
1.2177127007
1.2454927943
1.1999909288
1.2345206191
1.2452584026
1.2000752843
1.2003356110
1.2116997452
1.2451070419
1.2385863055
1.2009304853
1.2003698387
1.2047086580
1.2212111425
1.2451775858
1.2455949342
1.2010944760
1.1999055495
1.2004090165
1.2000155772
1.2454883655
1.2451524129
1.1995305603
1.2461501510
1.2147931628
1.2436456588
1.2454876846
1.2357627951
1.2001291319
1.2000500097
1.2458059788
1.1997965025
1.2251296005
1.2181256859
1.2452973393
1.2452560396
1.2006262994
1.2451756094
1.2451102606
1.2452099793
1.2313344688
1.2001342203
1.2451183952
1.2296832545
1.1992224399
1.2029753359
1.2003596708
1.2001505510
1.2218740618
1.2000510586
1.2241018816
1.1998101519
1.2072361487
1.1995106484
1.2010970866
1.2163686500
1.1996610469
1.1997784946
1.2461470970
1.2001670140
1.1995709620
1.2013699177
1.1994521085
1.2204855060
1.2049163681
1.1991475706
1.2128877784
1.2001305325
1.1999518891
1.1995323213
1.2455536110
1.2253947844
1.2262241124
1.2451076238
1.2485983600
1.2098835883
1.2452083247
1.2473549805
1.2348385302
1.2464466521
1.2481120872
1.2469570886
1.2429854766
1.2292803776
1.2484977111
1.2453462700
1.2482758996
1.2394257070
1.2459702163
1.2475693140
1.2469847654
1.2455962062
1.2159558827
1.2013863372
1.1985654921
1.1993751807
1.2051458723
1.2142880081
1.1995136805
1.2241012114
1.2003635985
1.1996229192
1.2228705135
1.1990055129
1.1985132950
1.1998113850
1.2071133614
1.2002700773
1.2028949153
1.1990709447
1.2126709064
1.2000291091
1.1982164552
1.1997799325
1.2030836104
1.2106058461
1.1990961077
1.2197007045
1.2188429049
1.1983831935
1.1992345356
1.2047985708
1.1994555297
1.2014117760
1.1995727156
1.2478253738
1.2076132002
1.2244264136
1.2351878527
1.2445100775
1.2493897248
1.2404641926
1.2475701023
1.2464350770
1.2478021371
1.2312713830
1.2456188308
1.2485984514
1.2508543082
1.2501746533
1.2097326073
1.2455509096
1.2478472989
1.2457567892
1.2471494749
1.2288028289
1.2404470313
1.2474385729
1.2504776987
1.2363079607
1.2474555586
1.2469548680
1.2470372392
1.2253967193
1.2459723835
1.2486144541
1.2506962905
1.2494378999
1.2480116360
1.2436515323
1.1993309478
1.1973283494
1.1985338736
1.1996243791
1.1974669242
1.2015565844
1.2138534493
1.2215180065
1.1974256783
1.2228721725
1.1992063563
1.2026118788
1.2119295988
1.2052715288
1.1985670966
1.1982122182
1.1969893916
1.1992363632
1.1985933528
1.2002328646
1.2104963180
1.2170489767
1.1969964731
1.2179159292
1.1983843981
1.2007885738
1.2079680358
1.2032326040
1.1983473555
1.2356173520
1.2476074754
1.2463294039
1.2464761902
1.2311550713
1.2527094242
1.2499536706
1.2049336438
1.2498659828
1.2494434749
1.2507062981
1.2496363695
1.2234576488
1.2076731659
1.2519019284
1.2416073817
1.2535574214
1.2478330521
1.2416524070
1.2451578660
1.2496931038
1.2471020892
1.2244306799
1.2517835120
1.2491594551
1.2501287327
1.2493138224
1.2507226725
1.2485740949
1.2283628186
1.2531322463
1.2369256794
1.2533565849
1.2486002488
1.2602382271
1.2535999181
1.2202632654
1.2643944614
1.1997202764
1.1973283722
1.2583378855
1.2643457242
1.1996996115
1.2515246482
1.2095005560
1.2029380830
1.2669692202
1.2633518190
1.2603436963
1.1976551226
1.2113912890
1.2215230219
1.1954104628
1.1968514615
1.1978072372
1.2390855319
1.2350422799
1.2617545558
1.1960627040
1.2623750199
1.2670364447
1.1957326459
1.2601522895
1.2487789689
1.2153541308
1.2628525552
1.1986161982
1.1972643943
1.2563510349
1.2644852001
1.1980632434
1.2577866861
1.2051164044
1.2011534177
1.2686984404
1.2627156900
1.2582282213
1.1985949616
1.2078853428
1.2158725365
1.1952180749
1.1959662727
1.1969962533
1.2328236909
1.2417145222
1.2588099217
1.1975664716
1.2653615202
1.2659391201
1.1954051247
1.1898127552
1.2519810754
1.2227500180
1.2525091831
1.2108025455
1.2533179253
1.2548360393
1.2496977145
1.1868362727
1.1849501261
1.1859581169
1.2557506285
1.1834937440
1.1964705284
1.2362407420
1.2517909281
1.2310512721
1.1975089076
1.2523398360
1.2132235185
1.2477854622
1.2019481695
1.2567395722
1.2051325356
1.2430068947
1.2498714822
1.1888072942
1.2484269241
1.1874626052
1.2506141726
1.2281920608
1.2516257306
1.2164859212
1.2533445166
1.2562474801
1.2507114263
1.1885866527
1.1867460731
1.1837124414
1.2546421772
1.1845124941
1.1991319370
1.2430731478
1.2516325830
1.2234643423
1.1936958802
1.2526890049
1.2067928756
1.2486960575
1.2565101575
1.2376493190
1.2470581455
1.1899455939
1.2522976620
1.2413819594
1.2762167067
1.2592494593
1.2564651095
1.2450260456
1.2515286490
1.2603537333
1.2699413228
1.1974251515
1.2584193541
1.2755073409
1.2577875117
1.2584183535
1.2418099598
1.2001636601
1.2631868053
1.2465234726
1.2350448474
1.2546232024
1.2238095997
1.2580940953
1.1959956600
1.2616400437
1.2603445458
1.2578468810
1.2724655689
1.2631897338
1.2731542736
1.2534002302
1.1964063785
1.2315582481
1.2670357153
1.2087015251
1.2301988312
1.2327658425
1.2693903003
1.2691494626
1.2546260125
1.2697142853
1.2668986552
1.2669698275
1.2643461026
1.2737572702
1.1957321672
1.2202712894
1.2623782280
1.2614745222
1.2623679992
1.2470698740
1.2752962763
1.2587752382
1.2686315867
1.2549591242
1.2380572080
1.2437850532
1.2547206849
1.2734492346
1.1965579145
1.2583394924
1.2775866020
1.2580385376
1.2485926807
1.1986184696
1.2642249632
1.2518029293
1.2260435719
1.2260419691
1.2648196573
1.1952177958
1.2619612459
1.2624283584
1.2590117501
1.2715926776
1.2712419582
1.2518911037
1.1975676491
1.2396829801
1.2620522733
1.2674488691
1.2049357894
1.2238121909
1.2668435795
1.2689328990
1.2584800339
1.2661405936
1.2644131650
1.2653631381
1.2659393645
1.2740699303
1.1958384518
1.2137582870
1.2577898972
1.2636453652
1.1947346221
1.2495775190
1.2848134470
1.2790287707
1.2546474913
1.2021820545
1.1857480025
1.2555355828
1.1845154446
1.2670490515
1.2555209882
1.2446372397
1.2081467609
1.2794901496
1.1937427502
1.1849527662
1.1937651831
1.2520619595
1.1865996085
1.1970461891
1.2832536491
1.2553044195
1.1835097845
1.2805155853
1.2818043738
1.1898147942
1.1851398263
1.2042717548
1.2042729637
1.2018954937
1.2310953121
1.2525248392
1.2744141608
1.1909063220
1.2026523000
1.1947873104
1.1878180647
1.2286832508
1.2632550351
1.1839277370
1.1825529530
1.2119265328
1.1838258904
1.2802694632
1.1941128271
1.2507833708
1.2843617972
1.2786080387
1.2544490338
1.1859796239
1.2545363815
1.1837161751
1.2610424828
1.2385256951
1.2026532984
1.2769853420
1.1940484601
1.1867486871
1.1930375534
1.2533232290
1.1857401250
1.1956690533
1.2816028758
1.2557275500
1.1839303137
1.2830930519
1.2807008750
1.1884434816
1.1859617547
1.1991331271
1.1879506503
1.1990006706
1.2227571397
1.2492845256
1.2743171288
1.1888090409
1.1961412701
1.1885889852
1.1857562705
1.2194865670
1.2706402615
1.1867081038
1.1835066808
1.2061026298
1.2772513045
1.2097767323
1.1937429014
1.1970495215
1.2418110780
1.1947872586
1.2755110117
1.2367202290
1.2194926208
1.1977436833
1.2468389994
1.1843636760
1.1921224505
1.1912866653
1.2669118343
1.1937062307
1.2612461607
1.1818711502
1.2061063705
1.1962964782
1.2612497033
1.2588115068
1.2580963725
1.1842791451
1.2616409028
1.2563517183
1.2398402519
1.2328278597
1.2669129320
1.1887698394
1.1911150556
1.2762199382
1.2627146157
1.2302442437
1.1805035721
1.2413772963
1.1913803257
1.2699447294
1.2656523958
1.2289364440
1.2242090813
1.2663447180
1.2196929641
1.1767873752
1.2565839535
1.2759192005
1.2417170660
1.2718925480
1.2718019218
1.2061611130
1.1813034200
1.2718944989
1.2705491660
1.1947372718
1.2083983977
1.2694113671
1.1903998100
1.1937663195
1.2677863958
1.2050147653
1.1940481163
1.1956721817
1.2318862644
1.1961420834
1.2734528651
1.2289376099
1.2696887144
1.2119310187
1.1992190021
1.2532712735
1.1854851238
1.1936868301
1.1916074100
1.1920852676
1.1800971864
1.2018988431
1.1946681609
1.2499253074
1.2658640301
1.2501414120
1.1825906174
1.2600991545
1.2778200952
1.2668999301
1.1884698533
1.1905612853
1.2763569854
1.2213224099
1.1783606398
1.1911055618
1.2648225502
1.2717994644
1.2318855076
1.2312652199
1.2140238163
1.1797777829
1.2752993750
1.2717429402
1.2003167410
1.1783913572
1.2732236468
1.2737600228
1.1941148642
1.2124122801
1.2720675809
1.1905397816
1.1930381232
1.2587739618
1.1990039774